{
    "LibraryIndex": "915",
    "CompoundID": "Air",
    "StructureFormula": "(N2)0.781 (O2)0.209 (Ar)0.01",
    "Family": "24",
    "CriticalTemperature": "132.45",
    "CriticalPressure": "3774000",
    "CriticalVolume": "0.09147",
    "CriticalCompressibility": "0.313",
    "NormalBoilingPointTemperature": "78.67",
    "NormalMeltingPointTemperature": "59.15",
    "TriplePointTemperature": "59.15",
    "TriplePointPressure": "5642.15",
    "MolecularWeight": "28.96",
    "LiquidVolumeAtNormalBoilingPoint": "0.0329147",
    "AcentricityFactor": "0",
    "SolubilityParameter": "12750",
    "DipoleMoment": "0",
    "HeatOfFormation": "0",
    "GibbsEnergyOfFormation": "0",
    "AbsEntropy": "199000",
    "HeatOfFusionAtMeltingPoint": "0",
    "HeatOfCombustion": "0",
    "LiquidDensity": {
        "eqno": "105",
        "A": "2.6731",
        "B": "0.25637",
        "C": "132.51",
        "D": "0.26788",
        "Tmin": "59.15",
        "Tmax": "132.5"
    },
    "VaporPressure": {
        "eqno": "101",
        "A": "14.794",
        "B": "-599.85",
        "C": "1.0009",
        "D": "-3.9938E-07",
        "E": "2",
        "Tmin": "59.15",
        "Tmax": "132.5"
    },
    "HeatOfVaporization": {
        "eqno": "106",
        "A": "7385651",
        "B": "0.276676",
        "C": "0.211253",
        "D": "-0.836764",
        "E": "0.722737",
        "Tmin": "59.15",
        "Tmax": "132.45"
    },
    "LiquidHeatCapacityCp": {
        "eqno": "16",
        "A": "53628",
        "B": "4511.1",
        "C": "-143.29",
        "D": "1.582",
        "E": "-0.0051332",
        "Tmin": "75",
        "Tmax": "124"
    },
    "IdealGasHeatCapacityCp": {
        "eqno": "100",
        "A": "29562.29",
        "B": "-7.164949",
        "C": "0.0216294",
        "D": "-0.0000139748",
        "E": "2.89195E-09",
        "Tmin": "50",
        "Tmax": "1500"
    },
    "SecondVirialCoefficient": {
        "eqno": "104",
        "A": "0.043047",
        "B": "-17.122",
        "C": "0.11732",
        "D": "-0.34143",
        "E": "0.30384",
        "Tmin": "118.15",
        "Tmax": "248.15"
    },
    "LiquidViscosity": {
        "eqno": "101",
        "A": "-72.336",
        "B": "813.48",
        "C": "12.687",
        "D": "-0.00033062",
        "E": "2",
        "Tmin": "59.15",
        "Tmax": "130"
    },
    "VaporViscosity": {
        "eqno": "102",
        "A": "0.000001592",
        "B": "0.48975",
        "C": "123.45",
        "D": "-829.58",
        "Tmin": "80",
        "Tmax": "2000"
    },
    "LiquidThermalConductivity": {
        "eqno": "16",
        "A": "-0.21199",
        "B": "-16.311",
        "C": "-0.23057",
        "D": "-0.0076197",
        "E": "0.0000025018",
        "Tmin": "75",
        "Tmax": "125"
    },
    "VaporThermalConductivity": {
        "eqno": "102",
        "A": "0.0003511",
        "B": "0.76492",
        "C": "16.071",
        "D": "1084.4",
        "Tmin": "70",
        "Tmax": "2000"
    },
    "RPPHeatCapacityCp": {
        "eqno": "4",
        "A": "29236",
        "B": "-3.8558",
        "C": "0.012307",
        "D": "-0.0000048402",
        "Tmin": "50",
        "Tmax": "1500"
    },
    "RelativeStaticPermittivity": {
        "eqno": "1",
        "A": "1",
        "Tmin": "100",
        "Tmax": "1500"
    },
    "AntoineVaporPressure": {
        "eqno": "10",
        "A": "20.72",
        "B": "765.88",
        "C": "4.6692",
        "Tmin": "80",
        "Tmax": "119"
    },
    "LiquidViscosityRPS": {
        "eqno": "13",
        "A": "-6.8411",
        "B": "-0.020116",
        "C": "-0.000025724",
        "Tmin": "59.15",
        "Tmax": "130"
    },
    "COSTALDVolume": "0.09147",
    "DiameterLJ": "3.711E-10",
    "EnergyLJ": "78.6",
    "RacketParameter": "0.29056",
    "FullerVolume": "19.7",
    "Parachor": "0.00105",
    "SpecificGravity": "0.879574",
    "Charge": "0",
    "CostaldAcentricFactor": "-0.00787976",
    "WilsonVolume": "0.0329147",
    "ChaoSeaderAcentricFactor": "-0.00787976",
    "ChaoSeaderSolubilityParameter": "12749.8",
    "ChaoSeaderLiquidVolume": "0.0329147",
    "CAS": "132259-10-0"
}