{
    "LibraryIndex": "531",
    "CompoundID": "1,2,3,5-tetramethylbenzene",
    "StructureFormula": "(C6H2)(CH3)4",
    "Family": "17",
    "CriticalTemperature": "679",
    "CriticalPressure": "3220000",
    "CriticalVolume": "0.436",
    "CriticalCompressibility": "0.254",
    "NormalBoilingPointTemperature": "471.15",
    "NormalMeltingPointTemperature": "249.46",
    "TriplePointTemperature": "249.46",
    "TriplePointPressure": "0.886139",
    "MolecularWeight": "134.2182",
    "LiquidVolumeAtNormalBoilingPoint": "0.151385",
    "AcentricityFactor": "0.459061",
    "RadiusOfGyration": "4.516E-10",
    "SolubilityParameter": "18330",
    "VanDerWaalsVolume": "0.09296",
    "VanDerWaalsArea": "1.168E+09",
    "HeatOfFormation": "-4.054E+07",
    "GibbsEnergyOfFormation": "1.231E+08",
    "AbsEntropy": "422500",
    "HeatOfFusionAtMeltingPoint": "1.072E+07",
    "MatthiasCopemanC1": "1.15",
    "HeatOfCombustion": "-5.532E+09",
    "SolidDensity": {
        "eqno": "2",
        "A": "8.728",
        "B": "-0.0038845",
        "C": "0",
        "D": "0",
        "E": "0",
        "Tmin": "99.78",
        "Tmax": "249.46"
    },
    "LiquidDensity": {
        "eqno": "105",
        "A": "0.5261",
        "B": "0.25428",
        "C": "679",
        "D": "0.28565",
        "Tmin": "249.46",
        "Tmax": "679"
    },
    "VaporPressure": {
        "eqno": "101",
        "A": "108.28",
        "B": "-9936.6",
        "C": "-12.519",
        "D": "0.0000062754",
        "E": "2",
        "Tmin": "249.46",
        "Tmax": "679"
    },
    "HeatOfVaporization": {
        "eqno": "106",
        "A": "6.6549E+07",
        "B": "0.31372",
        "C": "0.25924",
        "D": "-0.3264",
        "E": "0.12301",
        "Tmin": "249.46",
        "Tmax": "679"
    },
    "SolidHeatCapacityCp": {
        "eqno": "100",
        "A": "88.391",
        "B": "1331.3",
        "C": "-5.2242",
        "D": "0.018095",
        "E": "-0.000025164",
        "Tmin": "92.4",
        "Tmax": "249.46"
    },
    "LiquidHeatCapacityCp": {
        "eqno": "16",
        "A": "180380",
        "B": "-63.604",
        "C": "9.2496",
        "D": "0.0072443",
        "E": "-0.0000031051",
        "Tmin": "249.46",
        "Tmax": "480"
    },
    "IdealGasHeatCapacityCp": {
        "eqno": "16",
        "A": "109230",
        "B": "-579.21",
        "C": "13.116",
        "D": "0.00014705",
        "E": "-5.951E-08",
        "Tmin": "150",
        "Tmax": "1500"
    },
    "SecondVirialCoefficient": {
        "eqno": "104",
        "A": "0.3267",
        "B": "-429.83",
        "C": "-108.17",
        "D": "-65519",
        "E": "104920",
        "Tmin": "339.5",
        "Tmax": "1500"
    },
    "LiquidViscosity": {
        "eqno": "101",
        "A": "-14.031",
        "B": "1747.6",
        "C": "0.263",
        "D": "-3.7653E-07",
        "E": "2",
        "Tmin": "249.46",
        "Tmax": "573"
    },
    "VaporViscosity": {
        "eqno": "102",
        "A": "6.7114E-07",
        "B": "0.50662",
        "C": "335.88",
        "D": "-402.07",
        "Tmin": "249.46",
        "Tmax": "1000"
    },
    "LiquidThermalConductivity": {
        "eqno": "16",
        "A": "-0.064932",
        "B": "-8.9077",
        "C": "-1.3593",
        "D": "-0.00066705",
        "E": "-6.8372E-07",
        "Tmin": "249.46",
        "Tmax": "471.15"
    },
    "VaporThermalConductivity": {
        "eqno": "102",
        "A": "0.000082384",
        "B": "1.0555",
        "C": "595.15",
        "D": "34335",
        "Tmin": "249.46",
        "Tmax": "1000"
    },
    "SurfaceTension": {
        "eqno": "16",
        "A": "-0.0077784",
        "B": "249.63",
        "C": "-4.8091",
        "D": "0.0051648",
        "E": "-0.0000085507",
        "Tmin": "249.46",
        "Tmax": "679"
    },
    "RPPHeatCapacityCp": {
        "eqno": "4",
        "A": "15661",
        "B": "655.05",
        "C": "-0.30287",
        "D": "0.000047023",
        "Tmin": "150",
        "Tmax": "1500"
    },
    "AntoineVaporPressure": {
        "eqno": "10",
        "A": "21.323",
        "B": "3961.7",
        "C": "-66.892",
        "Tmin": "407.71",
        "Tmax": "610"
    },
    "LiquidViscosityRPS": {
        "eqno": "12",
        "A": "-2.4676",
        "B": "-0.013966",
        "Tmin": "249.46",
        "Tmax": "471.15"
    },
    "COSTALDVolume": "0.512922",
    "DiameterLJ": "7.327233E-10",
    "EnergyLJ": "319.2893",
    "RacketParameter": "0.254",
    "FullerVolume": "173.04",
    "MatthiasCopemanC2": "0",
    "Parachor": "0.0649311",
    "SpecificGravity": "0.894741",
    "Charge": "0",
    "CostaldAcentricFactor": "0.46",
    "WilsonVolume": "0.151385",
    "UniquacR": "6.1278",
    "UniquacQ": "4.672",
    "ApiSrkS2": "0.019944",
    "MatthiasCopemanC3": "0",
    "ChaoSeaderAcentricFactor": "0.426",
    "ChaoSeaderSolubilityParameter": "18330",
    "ChaoSeaderLiquidVolume": "0.151385",
    "UnifacVLE": {
        "group": "4"
    },
    "UnifacLLE": {
        "group": "4"
    },
    "Asog": {
        "group": "4"
    },
    "GCmethod": {
        "group": "4"
    },
    "Umr": {
        "group": "4"
    },
    "ModifiedUnifac": {
        "group": "4"
    },
    "CAS": "527-53-7",
    "Smiles": "c1(C)c(C)c(C)cc(C)c1"
}