{
    "LibraryIndex": "1523",
    "CompoundID": "1,2-dichloroethane",
    "StructureFormula": "CH2ClCH2Cl",
    "Family": "65",
    "CriticalTemperature": "561",
    "CriticalPressure": "5400000",
    "CriticalVolume": "0.22",
    "CriticalCompressibility": "0.255",
    "NormalBoilingPointTemperature": "356.66",
    "NormalMeltingPointTemperature": "237.49",
    "TriplePointTemperature": "237.49",
    "TriplePointPressure": "237.127",
    "MolecularWeight": "98.95916",
    "LiquidVolumeAtNormalBoilingPoint": "0.07945",
    "AcentricityFactor": "0.286",
    "RadiusOfGyration": "2.827E-10",
    "SolubilityParameter": "20260",
    "DipoleMoment": "4.8E-30",
    "VanDerWaalsVolume": "0.0437",
    "VanDerWaalsArea": "6.3E+08",
    "HeatOfFormation": "-1.2979E+08",
    "GibbsEnergyOfFormation": "-7.3945E+07",
    "AbsEntropy": "308280",
    "HeatOfFusionAtMeltingPoint": "8830000",
    "MatthiasCopemanC1": "0.98897",
    "HeatOfCombustion": "-1.105E+09",
    "SolidDensity": {
        "eqno": "2",
        "A": "14.854",
        "B": "2.2061E-09",
        "Tmin": "223.15",
        "Tmax": "232.65"
    },
    "LiquidDensity": {
        "eqno": "105",
        "A": "1.1942",
        "B": "0.27053",
        "C": "561.61",
        "D": "0.29157",
        "Tmin": "237.49",
        "Tmax": "561.6"
    },
    "VaporPressure": {
        "eqno": "101",
        "A": "81.47902",
        "B": "-6503.169",
        "C": "-8.960273",
        "D": "7.32894E-06",
        "E": "2",
        "Tmin": "237.49",
        "Tmax": "561.6"
    },
    "HeatOfVaporization": {
        "eqno": "106",
        "A": "5.072427E+07",
        "B": "0.517321",
        "C": "0.205828",
        "D": "-0.637156",
        "E": "0.265499",
        "Tmin": "237.49",
        "Tmax": "544.54"
    },
    "SolidHeatCapacityCp": {
        "eqno": "100",
        "A": "32947",
        "B": "-881.85",
        "C": "32.363",
        "D": "-0.29817",
        "E": "0.00092602",
        "Tmin": "40.69",
        "Tmax": "179.69"
    },
    "LiquidHeatCapacityCp": {
        "eqno": "16",
        "A": "92757",
        "B": "224.15",
        "C": "8.5223",
        "D": "0.0025656",
        "E": "0.000005106",
        "Tmin": "237.49",
        "Tmax": "522.04"
    },
    "IdealGasHeatCapacityCp": {
        "eqno": "16",
        "A": "62073",
        "B": "-758.84",
        "C": "12.345",
        "D": "-0.0004196",
        "E": "0.0000001146",
        "Tmin": "200",
        "Tmax": "1500"
    },
    "SecondVirialCoefficient": {
        "eqno": "104",
        "A": "0.15478",
        "B": "-169.14",
        "C": "-26.602",
        "D": "737.05",
        "E": "-4862.1",
        "Tmin": "243",
        "Tmax": "1964"
    },
    "LiquidViscosity": {
        "eqno": "101",
        "A": "25.747",
        "B": "-385.45",
        "C": "-5.5912",
        "D": "0.0000027937",
        "E": "2",
        "Tmin": "237.49",
        "Tmax": "550"
    },
    "VaporViscosity": {
        "eqno": "102",
        "A": "1.1983E-07",
        "B": "0.79504",
        "C": "20.791",
        "D": "14003",
        "Tmin": "237.49",
        "Tmax": "1000"
    },
    "LiquidThermalConductivity": {
        "eqno": "16",
        "A": "0.015945",
        "B": "-110.67",
        "C": "-0.74013",
        "D": "-0.0032664",
        "E": "-5.0786E-07",
        "Tmin": "244.26",
        "Tmax": "499.82"
    },
    "VaporThermalConductivity": {
        "eqno": "102",
        "A": "0.00023592",
        "B": "0.93945",
        "C": "1368.6",
        "D": "23794",
        "Tmin": "237.49",
        "Tmax": "1000"
    },
    "SurfaceTension": {
        "eqno": "16",
        "A": "-0.022707",
        "B": "74.78",
        "C": "-2.954",
        "D": "0.00056054",
        "E": "-0.0000041954",
        "Tmin": "237.49",
        "Tmax": "544.54"
    },
    "RPPHeatCapacityCp": {
        "eqno": "100",
        "A": "24860",
        "B": "192.87",
        "C": "-0.03359",
        "D": "-0.000094203",
        "E": "0.0000000513",
        "Tmin": "298",
        "Tmax": "1000"
    },
    "RelativeStaticPermittivity": {
        "eqno": "120",
        "A": "-8.970346",
        "B": "-5150",
        "C": "-30.9",
        "Tmin": "279.15",
        "Tmax": "449.15"
    },
    "AntoineVaporPressure": {
        "eqno": "10",
        "A": "21.473",
        "B": "3186",
        "C": "-36.407",
        "Tmin": "337.48",
        "Tmax": "499.82"
    },
    "LiquidViscosityRPS": {
        "eqno": "13",
        "A": "-1.994",
        "B": "-0.021914",
        "C": "0.000015517",
        "Tmin": "237.49",
        "Tmax": "544.26"
    },
    "COSTALDVolume": "0.231863",
    "DiameterLJ": "5.805919E-10",
    "EnergyLJ": "267.5597",
    "FullerVolume": "83.04",
    "MatthiasCopemanC2": "-0.73831",
    "Parachor": "0.0334",
    "SpecificGravity": "1.2604",
    "Charge": "0",
    "CostaldAcentricFactor": "0.2876",
    "WilsonVolume": "0.0794424",
    "UniquacR": "2.88",
    "UniquacQ": "2.52",
    "MatthiasCopemanC3": "1.2388",
    "ChaoSeaderAcentricFactor": "0.2876",
    "ChaoSeaderSolubilityParameter": "20249.5",
    "ChaoSeaderLiquidVolume": "0.0794424",
    "UnifacVLE": {
        "group": "2"
    },
    "UnifacLLE": {
        "group": "2"
    },
    "Asog": {
        "group": "2"
    },
    "GCmethod": {
        "group": "2"
    },
    "Umr": {
        "group": "2"
    },
    "ModifiedUnifac": {
        "group": "2"
    },
    "CAS": "107-06-2",
    "Smiles": "[Cl]CC[Cl]"
}