{
    "LibraryIndex": "302",
    "CompoundID": "1,2-butadiene",
    "StructureFormula": "CH2CCHCH3",
    "Family": "14",
    "CriticalTemperature": "452",
    "CriticalPressure": "4360000",
    "CriticalVolume": "0.22",
    "CriticalCompressibility": "0.255",
    "NormalBoilingPointTemperature": "284",
    "NormalMeltingPointTemperature": "136.95",
    "TriplePointTemperature": "136.95",
    "TriplePointPressure": "0.4472",
    "MolecularWeight": "54.09044",
    "LiquidVolumeAtNormalBoilingPoint": "0.0838169",
    "AcentricityFactor": "0.165877",
    "RadiusOfGyration": "2.724E-10",
    "SolubilityParameter": "15650",
    "DipoleMoment": "1.34E-30",
    "VanDerWaalsVolume": "0.04104",
    "VanDerWaalsArea": "6.06E+08",
    "HeatOfFormation": "1.623E+08",
    "GibbsEnergyOfFormation": "1.986E+08",
    "AbsEntropy": "293000",
    "HeatOfFusionAtMeltingPoint": "6962000",
    "MatthiasCopemanC1": "0.86993",
    "HeatOfCombustion": "-2.4617E+09",
    "SolidDensity": {
        "eqno": "2",
        "A": "19.23",
        "B": "-0.016101",
        "Tmin": "54.78",
        "Tmax": "136.95"
    },
    "LiquidDensity": {
        "eqno": "105",
        "A": "0.86492",
        "B": "0.22148",
        "C": "452",
        "D": "0.28373",
        "Tmin": "136.95",
        "Tmax": "452"
    },
    "VaporPressure": {
        "eqno": "101",
        "A": "53.27585",
        "B": "-4559.624",
        "C": "-4.46417",
        "D": "-6.771964E-06",
        "E": "2",
        "Tmin": "136.95",
        "Tmax": "452"
    },
    "HeatOfVaporization": {
        "eqno": "106",
        "A": "3.715905E+07",
        "B": "0.824251",
        "C": "0.000387028",
        "D": "-2.253417",
        "E": "2.024613",
        "Tmin": "136.95",
        "Tmax": "452"
    },
    "SolidHeatCapacityCp": {
        "eqno": "100",
        "A": "-12633",
        "B": "1064.1",
        "C": "-2.6638",
        "D": "-0.022763",
        "E": "0.00013729",
        "Tmin": "15",
        "Tmax": "135"
    },
    "LiquidHeatCapacityCp": {
        "eqno": "16",
        "A": "109750",
        "B": "-2425.1",
        "C": "12.655",
        "D": "0.059068",
        "E": "-0.00014415",
        "Tmin": "136.95",
        "Tmax": "290"
    },
    "IdealGasHeatCapacityCp": {
        "eqno": "16",
        "A": "39504.04",
        "B": "-354.1475",
        "C": "11.62099",
        "D": "0.00074321",
        "E": "-2.513775E-07",
        "Tmin": "80",
        "Tmax": "1500"
    },
    "SecondVirialCoefficient": {
        "eqno": "104",
        "A": "0.12404",
        "B": "-118.51",
        "C": "-9.2537",
        "D": "405.61",
        "E": "-950.52",
        "Tmin": "212.5",
        "Tmax": "1912.5"
    },
    "LiquidViscosity": {
        "eqno": "101",
        "A": "-9.9134",
        "B": "468.65",
        "C": "-0.069814",
        "D": "2.8031E-07",
        "E": "2",
        "Tmin": "136.95",
        "Tmax": "420"
    },
    "VaporViscosity": {
        "eqno": "102",
        "A": "6.4328E-07",
        "B": "0.52378",
        "C": "170.73",
        "D": "9690.7",
        "Tmin": "136.95",
        "Tmax": "1000"
    },
    "LiquidThermalConductivity": {
        "eqno": "16",
        "A": "-0.29344",
        "B": "3.1314",
        "C": "-0.70701",
        "D": "-0.00052702",
        "E": "-3.6665E-07",
        "Tmin": "136.95",
        "Tmax": "424.31"
    },
    "VaporThermalConductivity": {
        "eqno": "102",
        "A": "0.000085434",
        "B": "1.0359",
        "C": "127.53",
        "D": "78342",
        "Tmin": "136.95",
        "Tmax": "1000"
    },
    "SurfaceTension": {
        "eqno": "16",
        "A": "-0.0071904",
        "B": "58.358",
        "C": "-3.6032",
        "D": "0.002556",
        "E": "-0.000013035",
        "Tmin": "136.95",
        "Tmax": "452"
    },
    "RPPHeatCapacityCp": {
        "eqno": "4",
        "A": "9801.858",
        "B": "280.0477",
        "C": "-0.159682",
        "D": "0.0000372564",
        "Tmin": "200",
        "Tmax": "1200"
    },
    "AntoineVaporPressure": {
        "eqno": "10",
        "A": "20.862",
        "B": "2320",
        "C": "-35.494",
        "Tmin": "273.29",
        "Tmax": "402.26"
    },
    "LiquidViscosityRPS": {
        "eqno": "13",
        "A": "-3.9521",
        "B": "-0.026624",
        "C": "0.000034949",
        "Tmin": "136.95",
        "Tmax": "389.66"
    },
    "COSTALDVolume": "0.21829",
    "DiameterLJ": "5.805919E-10",
    "EnergyLJ": "215.5739",
    "FullerVolume": "77.46",
    "MatthiasCopemanC2": "0.09464",
    "Parachor": "0.0295",
    "SpecificGravity": "0.6507",
    "Charge": "0",
    "CostaldAcentricFactor": "0.2492",
    "WilsonVolume": "0.0816506",
    "UniquacR": "2.466",
    "UniquacQ": "2.024",
    "MatthiasCopemanC3": "-0.90162",
    "ChaoSeaderAcentricFactor": "0.3394",
    "ChaoSeaderSolubilityParameter": "16360.6",
    "ChaoSeaderLiquidVolume": "0.0816506",
    "UnifacVLE": {
        "group": "1"
    },
    "UnifacLLE": {
        "group": "1"
    },
    "Asog": {
        "group": "1"
    },
    "GCmethod": {
        "group": "1"
    },
    "Umr": {
        "group": "1"
    },
    "ModifiedUnifac": {
        "group": "1"
    },
    "CAS": "590-19-2",
    "Smiles": "C=C=CC"
}