{
    "LibraryIndex": "204",
    "CompoundID": "1-butene",
    "StructureFormula": "CH2CHCH2CH3",
    "Family": "9",
    "CriticalTemperature": "419.5",
    "CriticalPressure": "4020000",
    "CriticalVolume": "0.2408",
    "CriticalCompressibility": "0.278",
    "NormalBoilingPointTemperature": "266.92",
    "NormalMeltingPointTemperature": "87.8",
    "TriplePointTemperature": "87.8",
    "TriplePointPressure": "0.000000694",
    "MolecularWeight": "56.10632",
    "LiquidVolumeAtNormalBoilingPoint": "0.09534",
    "AcentricityFactor": "0.194",
    "RadiusOfGyration": "2.762E-10",
    "SolubilityParameter": "13630",
    "DipoleMoment": "1.13E-30",
    "VanDerWaalsVolume": "0.04431",
    "VanDerWaalsArea": "6.41E+08",
    "HeatOfFormation": "-500000",
    "GibbsEnergyOfFormation": "7.041E+07",
    "AbsEntropy": "307400",
    "HeatOfFusionAtMeltingPoint": "3848000",
    "MatthiasCopemanC1": "0.76818",
    "HeatOfCombustion": "-2.5408E+09",
    "SolidDensity": {
        "eqno": "2",
        "A": "18.071",
        "B": "-0.022407",
        "Tmin": "35.12",
        "Tmax": "87.8"
    },
    "LiquidDensity": {
        "eqno": "105",
        "A": "0.98",
        "B": "0.25169",
        "C": "419.54",
        "D": "0.26645",
        "Tmin": "87.8",
        "Tmax": "419.53"
    },
    "VaporPressure": {
        "eqno": "101",
        "A": "41.66588",
        "B": "-3605.004",
        "C": "-2.983562",
        "D": "6.665773E-07",
        "E": "2",
        "Tmin": "87.8",
        "Tmax": "419.5"
    },
    "HeatOfVaporization": {
        "eqno": "106",
        "A": "3.5338E+07",
        "B": "0.68186",
        "C": "-0.28099",
        "D": "-0.25369",
        "E": "0.26017",
        "Tmin": "87.8",
        "Tmax": "419.5"
    },
    "SolidHeatCapacityCp": {
        "eqno": "100",
        "A": "1585.7",
        "B": "-577.54",
        "C": "64.19",
        "D": "-1.0389",
        "E": "0.0053848",
        "Tmin": "6",
        "Tmax": "87.82"
    },
    "LiquidHeatCapacityCp": {
        "eqno": "16",
        "A": "100270",
        "B": "86.345",
        "C": "7.7333",
        "D": "0.00096546",
        "E": "0.000020281",
        "Tmin": "81.29",
        "Tmax": "380"
    },
    "IdealGasHeatCapacityCp": {
        "eqno": "16",
        "A": "53529",
        "B": "-619.26",
        "C": "12.431",
        "D": "0.000096632",
        "E": "-3.9013E-08",
        "Tmin": "200",
        "Tmax": "1500"
    },
    "SecondVirialCoefficient": {
        "eqno": "104",
        "A": "0.15917",
        "B": "-163.92",
        "C": "-3.9976",
        "D": "-1573.8",
        "E": "2763.7",
        "Tmin": "209.75",
        "Tmax": "1500"
    },
    "LiquidViscosity": {
        "eqno": "101",
        "A": "-10.764",
        "B": "591.51",
        "C": "-0.0017307",
        "D": "2.5723E-08",
        "E": "2",
        "Tmin": "87.8",
        "Tmax": "335.6"
    },
    "VaporViscosity": {
        "eqno": "102",
        "A": "7.0347E-07",
        "B": "0.54535",
        "C": "308.83",
        "D": "-232.73",
        "Tmin": "87.8",
        "Tmax": "1000"
    },
    "LiquidThermalConductivity": {
        "eqno": "16",
        "A": "0.071267",
        "B": "99.471",
        "C": "-4.2011",
        "D": "0.014325",
        "E": "-0.000041157",
        "Tmin": "87.8",
        "Tmax": "363.15"
    },
    "VaporThermalConductivity": {
        "eqno": "102",
        "A": "0.000092115",
        "B": "1.1181",
        "C": "717.19",
        "D": "13037",
        "Tmin": "87.8",
        "Tmax": "1000"
    },
    "SurfaceTension": {
        "eqno": "16",
        "A": "-0.011829",
        "B": "10.929",
        "C": "-2.9412",
        "D": "-0.00056522",
        "E": "-0.0000074409",
        "Tmin": "87.8",
        "Tmax": "419.5"
    },
    "RPPHeatCapacityCp": {
        "eqno": "100",
        "A": "36492",
        "B": "66.383",
        "C": "0.51076",
        "D": "-0.00068154",
        "E": "2.6315E-07",
        "Tmin": "50",
        "Tmax": "1000"
    },
    "AntoineVaporPressure": {
        "eqno": "10",
        "A": "21.09",
        "B": "2368.5",
        "C": "-19.25",
        "Tmin": "254.15",
        "Tmax": "373.15"
    },
    "LiquidViscosityRPS": {
        "eqno": "13",
        "A": "-0.33753",
        "B": "-0.055494",
        "C": "0.000090567",
        "Tmin": "87.8",
        "Tmax": "335.6"
    },
    "COSTALDVolume": "0.2377",
    "DiameterLJ": "5.394403E-10",
    "EnergyLJ": "273.0275",
    "RacketParameter": "0.2736",
    "FullerVolume": "82.08",
    "MatthiasCopemanC2": "-0.24598",
    "Parachor": "0.0321",
    "SpecificGravity": "0.593789",
    "Charge": "0",
    "CostaldAcentricFactor": "0.1921",
    "WilsonVolume": "0.0896329",
    "UniquacR": "2.92",
    "UniquacQ": "2.56",
    "ApiSrkS2": "0.001178",
    "MatthiasCopemanC3": "0.98463",
    "ChaoSeaderAcentricFactor": "0.2085",
    "ChaoSeaderSolubilityParameter": "13827.58",
    "ChaoSeaderLiquidVolume": "0.0953",
    "UnifacVLE": {
        "group": "1"
    },
    "UnifacLLE": {
        "group": "1"
    },
    "Asog": {
        "group": "1"
    },
    "GCmethod": {
        "group": "1"
    },
    "Umr": {
        "group": "1"
    },
    "ModifiedUnifac": {
        "group": "1"
    },
    "CAS": "106-98-9",
    "Smiles": "C=CCC"
}