{
    "LibraryIndex": "216",
    "CompoundID": "1-hexene",
    "StructureFormula": "CH2CH(CH2)3CH3",
    "Family": "9",
    "CriticalTemperature": "504",
    "CriticalPressure": "3143000",
    "CriticalVolume": "0.3551",
    "CriticalCompressibility": "0.266",
    "NormalBoilingPointTemperature": "336.63",
    "NormalMeltingPointTemperature": "133.39",
    "TriplePointTemperature": "133.39",
    "TriplePointPressure": "0.000516",
    "MolecularWeight": "84.15948",
    "LiquidVolumeAtNormalBoilingPoint": "0.1259",
    "AcentricityFactor": "0.281",
    "RadiusOfGyration": "3.66E-10",
    "SolubilityParameter": "15130",
    "DipoleMoment": "1.5E-30",
    "VanDerWaalsVolume": "0.06477",
    "VanDerWaalsArea": "9.11E+08",
    "HeatOfFormation": "-4.167E+07",
    "GibbsEnergyOfFormation": "8.7E+07",
    "AbsEntropy": "386300",
    "HeatOfFusionAtMeltingPoint": "9347000",
    "MatthiasCopemanC1": "0.91267",
    "HeatOfCombustion": "-3.7397E+09",
    "SolidDensity": {
        "eqno": "2",
        "A": "12.136",
        "B": "-0.0098653",
        "Tmin": "53.36",
        "Tmax": "133.39"
    },
    "LiquidDensity": {
        "eqno": "105",
        "A": "0.42588",
        "B": "0.20073",
        "C": "504",
        "D": "0.21659",
        "Tmin": "133.39",
        "Tmax": "503.53"
    },
    "VaporPressure": {
        "eqno": "101",
        "A": "61.18966",
        "B": "-5302.032",
        "C": "-5.914346",
        "D": "4.387106E-06",
        "E": "2",
        "Tmin": "133.39",
        "Tmax": "504"
    },
    "HeatOfVaporization": {
        "eqno": "106",
        "A": "4.3654E+07",
        "B": "0.036065",
        "C": "1.7176",
        "D": "-2.6805",
        "E": "1.3349",
        "Tmin": "133.39",
        "Tmax": "484.49"
    },
    "SolidHeatCapacityCp": {
        "eqno": "100",
        "A": "-4541.5",
        "B": "446.61",
        "C": "22.183",
        "D": "-0.29201",
        "E": "0.0010887",
        "Tmin": "11",
        "Tmax": "132"
    },
    "LiquidHeatCapacityCp": {
        "eqno": "16",
        "A": "120740",
        "B": "197.35",
        "C": "7.4671",
        "D": "0.012038",
        "E": "-0.0000076352",
        "Tmin": "133.39",
        "Tmax": "404"
    },
    "IdealGasHeatCapacityCp": {
        "eqno": "16",
        "A": "79063",
        "B": "-588.63",
        "C": "12.822",
        "D": "0.00010837",
        "E": "-3.9549E-08",
        "Tmin": "200",
        "Tmax": "1500"
    },
    "SecondVirialCoefficient": {
        "eqno": "104",
        "A": "0.20992",
        "B": "-237.14",
        "C": "-25.743",
        "D": "-1791.1",
        "E": "2218.7",
        "Tmin": "251.99",
        "Tmax": "1763.93"
    },
    "LiquidViscosity": {
        "eqno": "101",
        "A": "-10.027",
        "B": "774.41",
        "C": "-0.14562",
        "D": "-2.993E-08",
        "E": "2",
        "Tmin": "133.39",
        "Tmax": "403.2"
    },
    "VaporViscosity": {
        "eqno": "102",
        "A": "7.708E-08",
        "B": "0.81478",
        "C": "53.202",
        "D": "774.03",
        "Tmin": "133.39",
        "Tmax": "1000"
    },
    "LiquidThermalConductivity": {
        "eqno": "16",
        "A": "0.049094",
        "B": "18.334",
        "C": "-2.2175",
        "D": "0.0015607",
        "E": "-0.000010695",
        "Tmin": "133.15",
        "Tmax": "383.15"
    },
    "VaporThermalConductivity": {
        "eqno": "102",
        "A": "0.000064257",
        "B": "1.1355",
        "C": "445.14",
        "D": "64830",
        "Tmin": "133.39",
        "Tmax": "1000"
    },
    "SurfaceTension": {
        "eqno": "16",
        "A": "-0.012297",
        "B": "11.887",
        "C": "-2.8945",
        "D": "-0.00077443",
        "E": "-0.0000046447",
        "Tmin": "133.39",
        "Tmax": "484.49"
    },
    "RPPHeatCapacityCp": {
        "eqno": "100",
        "A": "52406",
        "B": "102.7",
        "C": "0.8529",
        "D": "-0.0011866",
        "E": "4.7459E-07",
        "Tmin": "200",
        "Tmax": "1000"
    },
    "AntoineVaporPressure": {
        "eqno": "10",
        "A": "21.306",
        "B": "2992.5",
        "C": "-30.644",
        "Tmin": "302.74",
        "Tmax": "445.48"
    },
    "LiquidViscosityRPS": {
        "eqno": "13",
        "A": "0.31346",
        "B": "-0.05007",
        "C": "0.000071081",
        "Tmin": "133.39",
        "Tmax": "336.63"
    },
    "COSTALDVolume": "0.35089",
    "DiameterLJ": "6.473968E-10",
    "EnergyLJ": "279.8451",
    "FullerVolume": "123.12",
    "MatthiasCopemanC2": "0",
    "Parachor": "0.0462",
    "SpecificGravity": "0.671653",
    "Charge": "0",
    "CostaldAcentricFactor": "0.28499",
    "WilsonVolume": "0.125765",
    "UniquacR": "4.27",
    "UniquacQ": "3.64",
    "ApiSrkS2": "-0.003219",
    "MatthiasCopemanC3": "0",
    "ChaoSeaderAcentricFactor": "0.2463",
    "ChaoSeaderSolubilityParameter": "15136.7",
    "ChaoSeaderLiquidVolume": "0.1258",
    "UnifacVLE": {
        "group": "1"
    },
    "UnifacLLE": {
        "group": "1"
    },
    "Asog": {
        "group": "1"
    },
    "GCmethod": {
        "group": "1"
    },
    "Umr": {
        "group": "1"
    },
    "ModifiedUnifac": {
        "group": "1"
    },
    "CAS": "592-41-6",
    "Smiles": "C=CCCCC"
}