{
    "LibraryIndex": "723",
    "CompoundID": "1-methylindene",
    "StructureFormula": "CH3(C9H7)",
    "Family": "23",
    "CriticalTemperature": "703",
    "CriticalPressure": "3460000",
    "CriticalVolume": "0.436",
    "CriticalCompressibility": "0.258",
    "NormalBoilingPointTemperature": "471.65",
    "MolecularWeight": "130.1864",
    "LiquidVolumeAtNormalBoilingPoint": "0.134643",
    "AcentricityFactor": "0.334861",
    "RadiusOfGyration": "4.195E-10",
    "SolubilityParameter": "19120",
    "DipoleMoment": "0",
    "VanDerWaalsVolume": "0.07745",
    "VanDerWaalsArea": "8.56E+08",
    "HeatOfFormation": "1.912E+08",
    "GibbsEnergyOfFormation": "2.97E+08",
    "AbsEntropy": "354000",
    "HeatOfFusionAtMeltingPoint": "0",
    "HeatOfCombustion": "-5.28E+09",
    "SolidDensity": {
        "eqno": "2",
        "A": "8.82",
        "B": "-1.1395E-16",
        "Tmin": "0",
        "Tmax": "9.5"
    },
    "LiquidDensity": {
        "eqno": "105",
        "A": "0.61191",
        "B": "0.25938",
        "C": "703",
        "D": "0.29267",
        "Tmin": "280",
        "Tmax": "680.74"
    },
    "VaporPressure": {
        "eqno": "101",
        "A": "86.18824",
        "B": "-8859.756",
        "C": "-9.212247",
        "D": "3.741568E-06",
        "E": "2",
        "Tmin": "280",
        "Tmax": "703"
    },
    "HeatOfVaporization": {
        "eqno": "106",
        "A": "8.0901E+07",
        "B": "1.9933",
        "C": "-4.5733",
        "D": "5.098",
        "E": "-2.0923",
        "Tmin": "280",
        "Tmax": "680.74"
    },
    "SolidHeatCapacityCp": {
        "eqno": "100",
        "A": "-3419.9",
        "B": "1162.6",
        "C": "-5.6175",
        "D": "0.02291",
        "E": "-0.000035065",
        "Tmin": "50",
        "Tmax": "293.15"
    },
    "LiquidHeatCapacityCp": {
        "eqno": "16",
        "A": "152820",
        "B": "-189.88",
        "C": "10.81",
        "D": "0.00256",
        "E": "-0.0000011085",
        "Tmin": "280",
        "Tmax": "471.65"
    },
    "IdealGasHeatCapacityCp": {
        "eqno": "16",
        "A": "-133130",
        "B": "-213.74",
        "C": "13.196",
        "D": "0.00017372",
        "E": "-4.8074E-08",
        "Tmin": "273",
        "Tmax": "1200"
    },
    "SecondVirialCoefficient": {
        "eqno": "104",
        "A": "0.28669",
        "B": "-413.47",
        "C": "-98.347",
        "D": "-24136",
        "E": "-27455",
        "Tmin": "351.5",
        "Tmax": "1931.5"
    },
    "VaporViscosity": {
        "eqno": "102",
        "A": "0.0000033072",
        "B": "0.32792",
        "C": "786.18",
        "D": "680.97",
        "Tmin": "280",
        "Tmax": "1000"
    },
    "LiquidThermalConductivity": {
        "eqno": "16",
        "A": "-0.018671",
        "B": "-66.592",
        "C": "-0.99313",
        "D": "-0.0021306",
        "E": "2.0941E-07",
        "Tmin": "280",
        "Tmax": "471.65"
    },
    "VaporThermalConductivity": {
        "eqno": "102",
        "A": "0.000091267",
        "B": "1.0385",
        "C": "720.72",
        "D": "-19410",
        "Tmin": "471.65",
        "Tmax": "1000"
    },
    "SurfaceTension": {
        "eqno": "16",
        "A": "-0.011077",
        "B": "98.828",
        "C": "-3.4597",
        "D": "0.0014463",
        "E": "-0.0000045421",
        "Tmin": "280",
        "Tmax": "680.74"
    },
    "RPPHeatCapacityCp": {
        "eqno": "4",
        "A": "-96611",
        "B": "1045.1",
        "C": "-0.86408",
        "D": "0.00027375",
        "Tmin": "300",
        "Tmax": "1200"
    },
    "AntoineVaporPressure": {
        "eqno": "10",
        "A": "21.371",
        "B": "4079.4",
        "C": "-58.289",
        "Tmin": "280",
        "Tmax": "703"
    },
    "COSTALDVolume": "0.419867",
    "DiameterLJ": "7.191125E-10",
    "EnergyLJ": "349.703",
    "RacketParameter": "0.261176",
    "FullerVolume": "145.5",
    "Parachor": "0.0578",
    "SpecificGravity": "0.97441",
    "Charge": "0",
    "CostaldAcentricFactor": "0.33569",
    "WilsonVolume": "0.134207",
    "UniquacR": "5.105471",
    "UniquacQ": "3.424",
    "ChaoSeaderAcentricFactor": "0.33569",
    "ChaoSeaderSolubilityParameter": "18312.4",
    "ChaoSeaderLiquidVolume": "0.134207",
    "UnifacVLE": {
        "group": "1"
    },
    "UnifacLLE": {
        "group": "2"
    },
    "Asog": {
        "group": "2"
    },
    "GCmethod": {
        "group": "2"
    },
    "Umr": {
        "group": "1"
    },
    "ModifiedUnifac": {
        "group": "1"
    },
    "CAS": "767-59-9",
    "Smiles": "C1=CC=C2C(=C1)C=CC2C"
}