{
    "LibraryIndex": "586",
    "CompoundID": "1-methyl-3-n-propylbenzene",
    "StructureFormula": "CH3(C6H4)CH2CH2CH3",
    "Family": "17",
    "CriticalTemperature": "656",
    "CriticalPressure": "2860000",
    "CriticalVolume": "0.482",
    "CriticalCompressibility": "0.249",
    "NormalBoilingPointTemperature": "455.13",
    "NormalMeltingPointTemperature": "190.57",
    "TriplePointTemperature": "190.57",
    "TriplePointPressure": "0.000721452",
    "MolecularWeight": "134.2182",
    "LiquidVolumeAtNormalBoilingPoint": "0.156623",
    "AcentricityFactor": "0.412785",
    "RadiusOfGyration": "4.794E-10",
    "SolubilityParameter": "17510",
    "DipoleMoment": "4.07E-31",
    "VanDerWaalsVolume": "0.09112",
    "VanDerWaalsArea": "1.154E+09",
    "HeatOfFormation": "-2.414E+07",
    "GibbsEnergyOfFormation": "1.352E+08",
    "AbsEntropy": "436800",
    "HeatOfFusionAtMeltingPoint": "1.06E+07",
    "HeatOfCombustion": "-5.5516E+09",
    "SolidDensity": {
        "eqno": "100",
        "A": "9.0174",
        "B": "-0.0059147",
        "C": "0",
        "D": "0",
        "E": "0",
        "Tmin": "76.23",
        "Tmax": "190.57"
    },
    "LiquidDensity": {
        "eqno": "105",
        "A": "0.18222",
        "B": "0.15152",
        "C": "656",
        "D": "0.20178",
        "Tmin": "190.57",
        "Tmax": "654"
    },
    "VaporPressure": {
        "eqno": "101",
        "A": "107.4588",
        "B": "-9508.773",
        "C": "-12.48918",
        "D": "6.776919E-06",
        "E": "2",
        "Tmin": "190.57",
        "Tmax": "654"
    },
    "HeatOfVaporization": {
        "eqno": "106",
        "A": "6.194565E+07",
        "B": "0.0524158",
        "C": "1.088831",
        "D": "-1.22236",
        "E": "0.439479",
        "Tmin": "190.57",
        "Tmax": "654"
    },
    "SolidHeatCapacityCp": {
        "eqno": "1",
        "A": "214740",
        "Tmin": "0",
        "Tmax": "656"
    },
    "LiquidHeatCapacityCp": {
        "eqno": "16",
        "A": "156110",
        "B": "-38.093",
        "C": "10.159",
        "D": "0.0050313",
        "E": "-0.0000015247",
        "Tmin": "298.15",
        "Tmax": "490.5"
    },
    "IdealGasHeatCapacityCp": {
        "eqno": "16",
        "A": "97127",
        "B": "-599.11",
        "C": "13.273",
        "D": "0.000011665",
        "E": "-1.9003E-08",
        "Tmin": "298.15",
        "Tmax": "1500"
    },
    "SecondVirialCoefficient": {
        "eqno": "104",
        "A": "0.34716",
        "B": "-445.08",
        "C": "-93.628",
        "D": "-50591",
        "E": "81753",
        "Tmin": "327",
        "Tmax": "1500"
    },
    "LiquidViscosity": {
        "eqno": "101",
        "A": "-17.301",
        "B": "1601.4",
        "C": "0.91018",
        "D": "-0.0000014707",
        "E": "2",
        "Tmin": "190.57",
        "Tmax": "603.15"
    },
    "VaporViscosity": {
        "eqno": "102",
        "A": "7.3681E-08",
        "B": "0.81524",
        "C": "130.94",
        "D": "-9552",
        "Tmin": "190.57",
        "Tmax": "1000"
    },
    "LiquidThermalConductivity": {
        "eqno": "16",
        "A": "-0.074198",
        "B": "4.023",
        "C": "-1.4364",
        "D": "-0.00042252",
        "E": "-0.0000008562",
        "Tmin": "190.57",
        "Tmax": "454.95"
    },
    "VaporThermalConductivity": {
        "eqno": "102",
        "A": "0.000083513",
        "B": "1.0517",
        "C": "570.8",
        "D": "33790",
        "Tmin": "190.57",
        "Tmax": "1000"
    },
    "SurfaceTension": {
        "eqno": "16",
        "A": "-0.0086511",
        "B": "61.14",
        "C": "-3.1888",
        "D": "0.0004569",
        "E": "-0.0000046729",
        "Tmin": "190.57",
        "Tmax": "654"
    },
    "RPPHeatCapacityCp": {
        "eqno": "4",
        "A": "-26053",
        "B": "805.01",
        "C": "-0.46803",
        "D": "0.00010355",
        "Tmin": "298.15",
        "Tmax": "1500"
    },
    "AntoineVaporPressure": {
        "eqno": "10",
        "A": "21.2",
        "B": "3779.7",
        "C": "-64.304",
        "Tmin": "395",
        "Tmax": "590"
    },
    "LiquidViscosityRPS": {
        "eqno": "12",
        "A": "-3.1694",
        "B": "-0.011417",
        "Tmin": "190.57",
        "Tmax": "603.15"
    },
    "COSTALDVolume": "0.50161",
    "DiameterLJ": "7.75928E-10",
    "EnergyLJ": "287.1671",
    "RacketParameter": "0.249",
    "FullerVolume": "173.04",
    "Parachor": "0.0643271",
    "SpecificGravity": "0.865762",
    "Charge": "0",
    "CostaldAcentricFactor": "0.412785",
    "WilsonVolume": "0.156623",
    "UniquacR": "6.0066",
    "UniquacQ": "4.616",
    "ChaoSeaderAcentricFactor": "0.412785",
    "ChaoSeaderSolubilityParameter": "17510",
    "ChaoSeaderLiquidVolume": "0.156623",
    "UnifacVLE": {
        "group": "1"
    },
    "UnifacLLE": {
        "group": "1"
    },
    "Asog": {
        "group": "2"
    },
    "GCmethod": {
        "group": "2"
    },
    "Umr": {
        "group": "1"
    },
    "ModifiedUnifac": {
        "group": "1"
    },
    "CAS": "1074-43-7",
    "Smiles": "c1(C)cc(CCC)ccc1"
}