{
    "LibraryIndex": "1769",
    "CompoundID": "1-nitrobutane",
    "StructureFormula": "CH3(CH2)3NO2",
    "Family": "39",
    "CriticalTemperature": "623",
    "CriticalPressure": "3600000",
    "CriticalVolume": "0.338",
    "CriticalCompressibility": "0.248",
    "NormalBoilingPointTemperature": "425.92",
    "NormalMeltingPointTemperature": "191.82",
    "TriplePointTemperature": "191.82",
    "TriplePointPressure": "0.00329301",
    "MolecularWeight": "103.1198",
    "LiquidVolumeAtNormalBoilingPoint": "0.106476",
    "AcentricityFactor": "0.454584",
    "RadiusOfGyration": "3.558E-10",
    "SolubilityParameter": "20780",
    "DipoleMoment": "1.13E-29",
    "VanDerWaalsVolume": "0.06116",
    "VanDerWaalsArea": "8.72E+08",
    "HeatOfFormation": "-1.439E+08",
    "GibbsEnergyOfFormation": "1.5E+07",
    "AbsEntropy": "379100",
    "HeatOfFusionAtMeltingPoint": "1.27E+07",
    "MatthiasCopemanC1": "1.08195",
    "HeatOfCombustion": "-2.46965E+09",
    "SolidDensity": {
        "eqno": "100",
        "A": "13.265",
        "B": "-0.0086439",
        "C": "0",
        "D": "0",
        "E": "0",
        "Tmin": "76.73",
        "Tmax": "191.82"
    },
    "LiquidDensity": {
        "eqno": "105",
        "A": "0.709",
        "B": "0.24401",
        "C": "623",
        "D": "0.28339",
        "Tmin": "191.82",
        "Tmax": "600.31"
    },
    "VaporPressure": {
        "eqno": "101",
        "A": "275.2044",
        "B": "-15483.84",
        "C": "-38.70231",
        "D": "0.0000386",
        "E": "2",
        "Tmin": "191.82",
        "Tmax": "623"
    },
    "HeatOfVaporization": {
        "eqno": "106",
        "A": "5.525605E+07",
        "B": "-1.025854",
        "C": "4.47262",
        "D": "-4.675607",
        "E": "1.466497",
        "Tmin": "191.82",
        "Tmax": "600.31"
    },
    "SolidHeatCapacityCp": {
        "eqno": "102",
        "A": "1900",
        "B": "0.79267",
        "C": "0",
        "D": "0",
        "Tmin": "50",
        "Tmax": "191.82"
    },
    "LiquidHeatCapacityCp": {
        "eqno": "16",
        "A": "56152",
        "B": "6.6387",
        "C": "10.762",
        "D": "0.003942",
        "E": "-0.0000013791",
        "Tmin": "191.82",
        "Tmax": "467.25"
    },
    "IdealGasHeatCapacityCp": {
        "eqno": "16",
        "A": "69545",
        "B": "-548.77",
        "C": "12.729",
        "D": "0.0001233",
        "E": "-6.7656E-08",
        "Tmin": "200",
        "Tmax": "1500"
    },
    "SecondVirialCoefficient": {
        "eqno": "104",
        "A": "0.22917",
        "B": "-262.47",
        "C": "-73.827",
        "D": "-67561",
        "E": "117970",
        "Tmin": "311.5",
        "Tmax": "1500"
    },
    "LiquidViscosity": {
        "eqno": "101",
        "A": "-8.4776",
        "B": "1274.9",
        "C": "-0.51437",
        "D": "0.0000019485",
        "E": "2",
        "Tmin": "191.82",
        "Tmax": "473"
    },
    "VaporViscosity": {
        "eqno": "102",
        "A": "9.0308E-08",
        "B": "0.82266",
        "C": "144.36",
        "D": "-9193.7",
        "Tmin": "191.82",
        "Tmax": "1000"
    },
    "LiquidThermalConductivity": {
        "eqno": "16",
        "A": "-0.088752",
        "B": "4.014",
        "C": "-1.2388",
        "D": "-0.00043694",
        "E": "-0.0000009691",
        "Tmin": "191.82",
        "Tmax": "425.92"
    },
    "VaporThermalConductivity": {
        "eqno": "102",
        "A": "0.00013665",
        "B": "0.98745",
        "C": "630.3",
        "D": "15608",
        "Tmin": "191.82",
        "Tmax": "1000"
    },
    "SurfaceTension": {
        "eqno": "16",
        "A": "-0.043136",
        "B": "2.5171",
        "C": "-2.3094",
        "D": "-0.00084543",
        "E": "-8.2017E-07",
        "Tmin": "191.82",
        "Tmax": "600.31"
    },
    "RPPHeatCapacityCp": {
        "eqno": "4",
        "A": "-1162",
        "B": "505.07",
        "C": "-0.28865",
        "D": "0.000060633",
        "Tmin": "200",
        "Tmax": "1500"
    },
    "AntoineVaporPressure": {
        "eqno": "10",
        "A": "20.871",
        "B": "3253.5",
        "C": "-77.411",
        "Tmin": "383.15",
        "Tmax": "554.92"
    },
    "LiquidViscosityRPS": {
        "eqno": "12",
        "A": "-2.177",
        "B": "-0.015145",
        "Tmin": "191.82",
        "Tmax": "425.92"
    },
    "COSTALDVolume": "0.327091",
    "DiameterLJ": "6.926947E-10",
    "EnergyLJ": "268.7988",
    "RacketParameter": "0.248",
    "FullerVolume": "101.15",
    "MatthiasCopemanC2": "0",
    "Parachor": "0.0450147",
    "SpecificGravity": "0.978442",
    "Charge": "0",
    "CostaldAcentricFactor": "0.454584",
    "WilsonVolume": "0.106476",
    "UniquacR": "4.0317",
    "UniquacQ": "3.488",
    "MatthiasCopemanC3": "0",
    "ChaoSeaderAcentricFactor": "0.454584",
    "ChaoSeaderSolubilityParameter": "20780",
    "ChaoSeaderLiquidVolume": "0.106476",
    "UnifacVLE": {
        "group": "1"
    },
    "UnifacLLE": {
        "group": "1"
    },
    "Asog": {
        "group": "1"
    },
    "Umr": {
        "group": "1"
    },
    "ModifiedUnifac": {
        "group": "1"
    },
    "CAS": "627-05-4",
    "Smiles": "CCCCN(=O)=O"
}