{
    "LibraryIndex": "1762",
    "CompoundID": "1-nitropropane",
    "StructureFormula": "CH3CH2CH2NO2",
    "Family": "39",
    "CriticalTemperature": "605",
    "CriticalPressure": "4350000",
    "CriticalVolume": "0.288",
    "CriticalCompressibility": "0.249",
    "NormalBoilingPointTemperature": "404.33",
    "NormalMeltingPointTemperature": "169.16",
    "TriplePointTemperature": "169.16",
    "TriplePointPressure": "0.000688982",
    "MolecularWeight": "89.09318",
    "LiquidVolumeAtNormalBoilingPoint": "0.0894679",
    "AcentricityFactor": "0.412773",
    "RadiusOfGyration": "3.359E-10",
    "SolubilityParameter": "21290",
    "DipoleMoment": "1.22E-29",
    "VanDerWaalsVolume": "0.05093",
    "VanDerWaalsArea": "7.37E+08",
    "HeatOfFormation": "-1.24E+08",
    "GibbsEnergyOfFormation": "335000",
    "AbsEntropy": "355600",
    "HeatOfFusionAtMeltingPoint": "9220000",
    "MatthiasCopemanC1": "1.09",
    "HeatOfCombustion": "-1.859E+09",
    "SolidDensity": {
        "eqno": "2",
        "A": "15.957",
        "B": "-0.010505",
        "C": "0",
        "D": "0",
        "E": "0",
        "Tmin": "67.66",
        "Tmax": "169.16"
    },
    "LiquidDensity": {
        "eqno": "105",
        "A": "0.85075",
        "B": "0.24483",
        "C": "605",
        "D": "0.27413",
        "Tmin": "169.16",
        "Tmax": "605"
    },
    "VaporPressure": {
        "eqno": "101",
        "A": "38.65807",
        "B": "-5750.644",
        "C": "-2.115655",
        "D": "-1.225423E-06",
        "E": "2",
        "Tmin": "169.16",
        "Tmax": "605"
    },
    "HeatOfVaporization": {
        "eqno": "106",
        "A": "5.6307E+07",
        "B": "0.47767",
        "C": "-0.18338",
        "D": "0.057255",
        "E": "-0.028311",
        "Tmin": "169.16",
        "Tmax": "605"
    },
    "SolidHeatCapacityCp": {
        "eqno": "1",
        "A": "131170",
        "Tmin": "0",
        "Tmax": "605"
    },
    "LiquidHeatCapacityCp": {
        "eqno": "16",
        "A": "-8835.6",
        "B": "176.43",
        "C": "9.53",
        "D": "0.0096176",
        "E": "-0.0000099253",
        "Tmin": "169.16",
        "Tmax": "404.33"
    },
    "IdealGasHeatCapacityCp": {
        "eqno": "16",
        "A": "57745",
        "B": "-538.37",
        "C": "12.483",
        "D": "0.00011202",
        "E": "-5.1502E-08",
        "Tmin": "150",
        "Tmax": "1500"
    },
    "SecondVirialCoefficient": {
        "eqno": "104",
        "A": "0.18935",
        "B": "-215.56",
        "C": "-56.681",
        "D": "-61127",
        "E": "111790",
        "Tmin": "302.5",
        "Tmax": "1934.5"
    },
    "LiquidViscosity": {
        "eqno": "101",
        "A": "-19.997",
        "B": "1653",
        "C": "1.2605",
        "D": "0.0000015194",
        "E": "2",
        "Tmin": "240",
        "Tmax": "404.33"
    },
    "VaporViscosity": {
        "eqno": "102",
        "A": "1.7108E-07",
        "B": "0.7401",
        "C": "220.03",
        "D": "-15.073",
        "Tmin": "169.16",
        "Tmax": "1000"
    },
    "LiquidThermalConductivity": {
        "eqno": "16",
        "A": "-0.068381",
        "B": "13.221",
        "C": "-1.3628",
        "D": "-0.00024357",
        "E": "-0.0000012535",
        "Tmin": "169.16",
        "Tmax": "404.33"
    },
    "VaporThermalConductivity": {
        "eqno": "102",
        "A": "0.0022117",
        "B": "0.61538",
        "C": "875.34",
        "D": "312410",
        "Tmin": "169.16",
        "Tmax": "1000"
    },
    "SurfaceTension": {
        "eqno": "16",
        "A": "-0.035529",
        "B": "0.58517",
        "C": "-2.3314",
        "D": "-0.00099947",
        "E": "-0.0000011138",
        "Tmin": "169.16",
        "Tmax": "605"
    },
    "RPPHeatCapacityCp": {
        "eqno": "4",
        "A": "8797.2",
        "B": "373.51",
        "C": "-0.1991",
        "D": "0.000038609",
        "Tmin": "150",
        "Tmax": "1500"
    },
    "AntoineVaporPressure": {
        "eqno": "10",
        "A": "21.552",
        "B": "3564.5",
        "C": "-49.073",
        "Tmin": "363.15",
        "Tmax": "536.18"
    },
    "LiquidViscosityRPS": {
        "eqno": "12",
        "A": "-3.6872",
        "B": "-0.011404",
        "Tmin": "240",
        "Tmax": "404.33"
    },
    "COSTALDVolume": "0.270875",
    "DiameterLJ": "6.535366E-10",
    "EnergyLJ": "264.8416",
    "RacketParameter": "0.249",
    "FullerVolume": "80.63",
    "MatthiasCopemanC2": "0",
    "Parachor": "0.0376918",
    "SpecificGravity": "1.006497",
    "Charge": "0",
    "CostaldAcentricFactor": "0.412773",
    "WilsonVolume": "0.0894679",
    "UniquacR": "3.3573",
    "UniquacQ": "2.948",
    "MatthiasCopemanC3": "0",
    "ChaoSeaderAcentricFactor": "0.412773",
    "ChaoSeaderSolubilityParameter": "21290",
    "ChaoSeaderLiquidVolume": "0.0894679",
    "UnifacVLE": {
        "group": "1"
    },
    "UnifacLLE": {
        "group": "1"
    },
    "Asog": {
        "group": "1"
    },
    "Umr": {
        "group": "1"
    },
    "ModifiedUnifac": {
        "group": "1"
    },
    "CAS": "108-03-2",
    "Smiles": "CCCN(=O)=O"
}