{
    "LibraryIndex": "259",
    "CompoundID": "1-nonene",
    "StructureFormula": "CH2CH(CH2)6CH3",
    "Family": "9",
    "CriticalTemperature": "594",
    "CriticalPressure": "2330000",
    "CriticalVolume": "0.526",
    "CriticalCompressibility": "0.248",
    "NormalBoilingPointTemperature": "420.03",
    "NormalMeltingPointTemperature": "191.91",
    "TriplePointTemperature": "191.91",
    "TriplePointPressure": "0.0204",
    "MolecularWeight": "126.2392",
    "LiquidVolumeAtNormalBoilingPoint": "0.17405",
    "AcentricityFactor": "0.411",
    "RadiusOfGyration": "4.873E-10",
    "SolubilityParameter": "15500",
    "DipoleMoment": "2.0E-30",
    "VanDerWaalsVolume": "0.09546",
    "VanDerWaalsArea": "1.316E+09",
    "HeatOfFormation": "-1.035E+08",
    "GibbsEnergyOfFormation": "1.123E+08",
    "AbsEntropy": "504100",
    "HeatOfFusionAtMeltingPoint": "1.9359E+07",
    "MatthiasCopemanC1": "1.1406",
    "HeatOfCombustion": "-5.5716E+09",
    "SolidDensity": {
        "eqno": "2",
        "A": "8.0944",
        "B": "-0.0047703",
        "C": "0",
        "D": "0",
        "E": "0",
        "Tmin": "76.76",
        "Tmax": "191.91"
    },
    "LiquidDensity": {
        "eqno": "105",
        "A": "0.18062",
        "B": "0.15802",
        "C": "594",
        "D": "0.18969",
        "Tmin": "191.91",
        "Tmax": "593.1"
    },
    "VaporPressure": {
        "eqno": "101",
        "A": "120.37",
        "B": "-9418.7",
        "C": "-14.583",
        "D": "0.0000094863",
        "E": "2",
        "Tmin": "191.91",
        "Tmax": "593.1"
    },
    "HeatOfVaporization": {
        "eqno": "106",
        "A": "5.0729E+07",
        "B": "-0.72017",
        "C": "3.2276",
        "D": "-3.6347",
        "E": "1.4659",
        "Tmin": "191.91",
        "Tmax": "593.1"
    },
    "SolidHeatCapacityCp": {
        "eqno": "100",
        "A": "-16015",
        "B": "1468.8",
        "C": "2.0005",
        "D": "-0.064925",
        "E": "0.00021824",
        "Tmin": "11",
        "Tmax": "191.92"
    },
    "LiquidHeatCapacityCp": {
        "eqno": "16",
        "A": "58309",
        "B": "119.15",
        "C": "10.75",
        "D": "0.0042025",
        "E": "-0.0000015805",
        "Tmin": "191.91",
        "Tmax": "475"
    },
    "IdealGasHeatCapacityCp": {
        "eqno": "16",
        "A": "122350",
        "B": "-622.4",
        "C": "13.352",
        "D": "-0.000015236",
        "E": "-2.3169E-10",
        "Tmin": "200",
        "Tmax": "1500"
    },
    "SecondVirialCoefficient": {
        "eqno": "104",
        "A": "0.21322",
        "B": "-235.69",
        "C": "-117.36",
        "D": "37005",
        "E": "-118360",
        "Tmin": "297",
        "Tmax": "1500"
    },
    "LiquidViscosity": {
        "eqno": "101",
        "A": "-10.296",
        "B": "1057.3",
        "C": "-0.12431",
        "D": "2.0281E-07",
        "E": "2",
        "Tmin": "191.91",
        "Tmax": "420.02"
    },
    "VaporViscosity": {
        "eqno": "102",
        "A": "7.2319E-08",
        "B": "0.81707",
        "C": "155.31",
        "D": "-12572",
        "Tmin": "191.91",
        "Tmax": "1000"
    },
    "LiquidThermalConductivity": {
        "eqno": "16",
        "A": "0.024602",
        "B": "-118.29",
        "C": "-0.40946",
        "D": "-0.0056136",
        "E": "0.0000021909",
        "Tmin": "191.91",
        "Tmax": "533.15"
    },
    "VaporThermalConductivity": {
        "eqno": "102",
        "A": "0.000019761",
        "B": "1.2983",
        "C": "563.96",
        "D": "24829",
        "Tmin": "191.91",
        "Tmax": "1000"
    },
    "SurfaceTension": {
        "eqno": "16",
        "A": "-0.13785",
        "B": "-6.5227",
        "C": "-1.5557",
        "D": "-0.00098337",
        "E": "4.6887E-07",
        "Tmin": "191.91",
        "Tmax": "593.1"
    },
    "RPPHeatCapacityCp": {
        "eqno": "100",
        "A": "82837",
        "B": "113.94",
        "C": "1.4559",
        "D": "-0.0020124",
        "E": "0.000000806",
        "Tmin": "200",
        "Tmax": "1000"
    },
    "AntoineVaporPressure": {
        "eqno": "10",
        "A": "21.098",
        "B": "3433.4",
        "C": "-61.353",
        "Tmin": "357.35",
        "Tmax": "529.75"
    },
    "LiquidViscosityRPS": {
        "eqno": "12",
        "A": "-3.6813",
        "B": "-0.01221",
        "Tmin": "191.91",
        "Tmax": "420.02"
    },
    "COSTALDVolume": "0.528415",
    "DiameterLJ": "8.027215E-10",
    "EnergyLJ": "256.2865",
    "RacketParameter": "0.248",
    "FullerVolume": "184.68",
    "MatthiasCopemanC2": "-0.34446",
    "Parachor": "0.0667997",
    "SpecificGravity": "0.734403",
    "Charge": "0",
    "CostaldAcentricFactor": "0.411",
    "WilsonVolume": "0.17405",
    "UniquacR": "6.2929",
    "UniquacQ": "5.264",
    "ApiSrkS2": "-0.000564",
    "MatthiasCopemanC3": "0.80187",
    "ChaoSeaderAcentricFactor": "0.411",
    "ChaoSeaderSolubilityParameter": "15500",
    "ChaoSeaderLiquidVolume": "0.17405",
    "UnifacVLE": {
        "group": "1"
    },
    "UnifacLLE": {
        "group": "1"
    },
    "Asog": {
        "group": "1"
    },
    "GCmethod": {
        "group": "1"
    },
    "Umr": {
        "group": "1"
    },
    "ModifiedUnifac": {
        "group": "1"
    },
    "CAS": "124-11-8",
    "Smiles": "C=CCCCCCCC"
}