{
    "LibraryIndex": "250",
    "CompoundID": "1-octene",
    "StructureFormula": "CH2CH(CH2)5CH3",
    "Family": "9",
    "CriticalTemperature": "567",
    "CriticalPressure": "2680000",
    "CriticalVolume": "0.468",
    "CriticalCompressibility": "0.266",
    "NormalBoilingPointTemperature": "394.44",
    "NormalMeltingPointTemperature": "171.45",
    "TriplePointTemperature": "171.45",
    "TriplePointPressure": "0.00298",
    "MolecularWeight": "112.2126",
    "LiquidVolumeAtNormalBoilingPoint": "0.15785",
    "AcentricityFactor": "0.393",
    "RadiusOfGyration": "4.457E-10",
    "SolubilityParameter": "15540",
    "DipoleMoment": "1.4E-30",
    "VanDerWaalsVolume": "0.08523",
    "VanDerWaalsArea": "1.181E+09",
    "HeatOfFormation": "-8.194E+07",
    "GibbsEnergyOfFormation": "1.057E+08",
    "AbsEntropy": "463700",
    "HeatOfFusionAtMeltingPoint": "1.531E+07",
    "MatthiasCopemanC1": "1.0842",
    "HeatOfCombustion": "-4.961E+09",
    "SolidDensity": {
        "eqno": "2",
        "A": "9.1732",
        "B": "-0.0061137",
        "C": "0",
        "D": "0",
        "E": "0",
        "Tmin": "68.58",
        "Tmax": "171.45"
    },
    "LiquidDensity": {
        "eqno": "105",
        "A": "0.44684",
        "B": "0.23463",
        "C": "567",
        "D": "0.24846",
        "Tmin": "171.45",
        "Tmax": "566.9"
    },
    "VaporPressure": {
        "eqno": "101",
        "A": "177.7155",
        "B": "-11137.29",
        "C": "-23.58923",
        "D": "0.000019592",
        "E": "2",
        "Tmin": "171.45",
        "Tmax": "566.9"
    },
    "HeatOfVaporization": {
        "eqno": "106",
        "A": "5.7062E+07",
        "B": "0.3453",
        "C": "0.41628",
        "D": "-0.36125",
        "E": "-0.059539",
        "Tmin": "171.45",
        "Tmax": "566.9"
    },
    "SolidHeatCapacityCp": {
        "eqno": "100",
        "A": "-18727",
        "B": "1711.3",
        "C": "-4.6191",
        "D": "-0.021907",
        "E": "0.00013331",
        "Tmin": "12",
        "Tmax": "171.48"
    },
    "LiquidHeatCapacityCp": {
        "eqno": "16",
        "A": "-24253",
        "B": "87.834",
        "C": "11.35",
        "D": "0.0032002",
        "E": "-0.0000012467",
        "Tmin": "171",
        "Tmax": "454"
    },
    "IdealGasHeatCapacityCp": {
        "eqno": "16",
        "A": "106430",
        "B": "-593.77",
        "C": "13.154",
        "D": "0.00006689",
        "E": "-2.6274E-08",
        "Tmin": "200",
        "Tmax": "1500"
    },
    "SecondVirialCoefficient": {
        "eqno": "104",
        "A": "0.26737",
        "B": "-340.49",
        "C": "-61.032",
        "D": "-4988.1",
        "E": "1129.3",
        "Tmin": "264",
        "Tmax": "1983.1"
    },
    "LiquidViscosity": {
        "eqno": "101",
        "A": "-5.8042",
        "B": "945.32",
        "C": "-0.93827",
        "D": "0.0000032767",
        "E": "2",
        "Tmin": "171.45",
        "Tmax": "453.52"
    },
    "VaporViscosity": {
        "eqno": "102",
        "A": "0.000047664",
        "B": "0.084052",
        "C": "3514.6",
        "D": "21127",
        "Tmin": "171.45",
        "Tmax": "1000"
    },
    "LiquidThermalConductivity": {
        "eqno": "16",
        "A": "0.035226",
        "B": "40.754",
        "C": "-2.2668",
        "D": "0.00092297",
        "E": "-0.0000060301",
        "Tmin": "171.45",
        "Tmax": "513.15"
    },
    "VaporThermalConductivity": {
        "eqno": "102",
        "A": "0.000014109",
        "B": "1.354",
        "C": "610.51",
        "D": "-30915",
        "Tmin": "171.45",
        "Tmax": "1000"
    },
    "SurfaceTension": {
        "eqno": "16",
        "A": "-0.14483",
        "B": "-2.7807",
        "C": "-1.5504",
        "D": "-0.00091294",
        "E": "4.2416E-07",
        "Tmin": "171.45",
        "Tmax": "566.9"
    },
    "RPPHeatCapacityCp": {
        "eqno": "100",
        "A": "72710",
        "B": "110.08",
        "C": "1.2552",
        "D": "-0.0017373",
        "E": "6.9559E-07",
        "Tmin": "200",
        "Tmax": "1000"
    },
    "RelativeStaticPermittivity": {
        "eqno": "120",
        "A": "-1.5046",
        "B": "-1050",
        "C": "-6.3",
        "Tmin": "278.5945",
        "Tmax": "448.5945"
    },
    "AntoineVaporPressure": {
        "eqno": "10",
        "A": "20.716",
        "B": "3032.4",
        "C": "-64.529",
        "Tmin": "340.25",
        "Tmax": "504.46"
    },
    "LiquidViscosityRPS": {
        "eqno": "12",
        "A": "-3.9394",
        "B": "-0.012055",
        "Tmin": "171.45",
        "Tmax": "453.52"
    },
    "COSTALDVolume": "0.465907",
    "DiameterLJ": "7.097994E-10",
    "EnergyLJ": "314.8257",
    "RacketParameter": "0.266",
    "FullerVolume": "164.16",
    "MatthiasCopemanC2": "-0.37034",
    "Parachor": "0.0596194",
    "SpecificGravity": "0.720816",
    "Charge": "0",
    "CostaldAcentricFactor": "0.393",
    "WilsonVolume": "0.15785",
    "UniquacR": "5.6185",
    "UniquacQ": "4.724",
    "ApiSrkS2": "-0.002307",
    "MatthiasCopemanC3": "0.78497",
    "ChaoSeaderAcentricFactor": "0.393",
    "ChaoSeaderSolubilityParameter": "15540",
    "ChaoSeaderLiquidVolume": "0.15785",
    "UnifacVLE": {
        "group": "1"
    },
    "UnifacLLE": {
        "group": "1"
    },
    "Asog": {
        "group": "1"
    },
    "GCmethod": {
        "group": "1"
    },
    "Umr": {
        "group": "1"
    },
    "ModifiedUnifac": {
        "group": "1"
    },
    "CAS": "111-66-0",
    "Smiles": "C=CCCCCCC"
}