{
    "LibraryIndex": "1109",
    "CompoundID": "1-pentanol",
    "StructureFormula": "CH3(CH2)4OH",
    "Family": "27",
    "CriticalTemperature": "588.15",
    "CriticalPressure": "3909000",
    "CriticalVolume": "0.326",
    "CriticalCompressibility": "0.262",
    "NormalBoilingPointTemperature": "411.16",
    "NormalMeltingPointTemperature": "194.95",
    "TriplePointTemperature": "195.56",
    "TriplePointPressure": "0.000345245",
    "MolecularWeight": "88.14818",
    "LiquidVolumeAtNormalBoilingPoint": "0.10863",
    "AcentricityFactor": "0.579",
    "RadiusOfGyration": "3.679E-10",
    "SolubilityParameter": "22520",
    "DipoleMoment": "5.67059E-30",
    "VanDerWaalsVolume": "0.06263",
    "VanDerWaalsArea": "8.98E+08",
    "HeatOfFormation": "-3.0016E+08",
    "GibbsEnergyOfFormation": "-1.46022E+08",
    "AbsEntropy": "402501",
    "HeatOfFusionAtMeltingPoint": "9790560",
    "MatthiasCopemanC1": "1.3176",
    "HeatOfCombustion": "-3.06051E+09",
    "SolidDensity": {
        "eqno": "2",
        "A": "11.8",
        "B": "7.9473E-09",
        "C": "0",
        "D": "0",
        "E": "0",
        "Tmin": "195.56",
        "Tmax": "205.06"
    },
    "LiquidDensity": {
        "eqno": "105",
        "A": "0.54137",
        "B": "0.21848",
        "C": "588.15",
        "D": "0.20812",
        "Tmin": "195.56",
        "Tmax": "588.1"
    },
    "VaporPressure": {
        "eqno": "101",
        "A": "150.9933",
        "B": "-11938.85",
        "C": "-18.59103",
        "D": "8.735585E-06",
        "E": "2",
        "Tmin": "195.56",
        "Tmax": "588.1"
    },
    "HeatOfVaporization": {
        "eqno": "106",
        "A": "1.1853E+08",
        "B": "1.9668",
        "C": "-2.5741",
        "D": "1.6268",
        "E": "-0.41037",
        "Tmin": "195.56",
        "Tmax": "588.1"
    },
    "SolidHeatCapacityCp": {
        "eqno": "100",
        "A": "-15533",
        "B": "1421.2",
        "C": "-4.9071",
        "D": "-0.013872",
        "E": "0.00011092",
        "Tmin": "21.61",
        "Tmax": "195.56"
    },
    "LiquidHeatCapacityCp": {
        "eqno": "16",
        "A": "151460",
        "B": "721.52",
        "C": "-3.5691",
        "D": "0.059604",
        "E": "-0.000063767",
        "Tmin": "200.14",
        "Tmax": "390"
    },
    "IdealGasHeatCapacityCp": {
        "eqno": "16",
        "A": "78144",
        "B": "-573.83",
        "C": "12.781",
        "D": "0.00015431",
        "E": "-6.6745E-08",
        "Tmin": "200",
        "Tmax": "1500"
    },
    "SecondVirialCoefficient": {
        "eqno": "104",
        "A": "0.24054",
        "B": "-258.72",
        "C": "-37.585",
        "D": "50573",
        "E": "-237590",
        "Tmin": "294.05",
        "Tmax": "1871.1"
    },
    "LiquidViscosity": {
        "eqno": "101",
        "A": "-29.696",
        "B": "3126.2",
        "C": "2.4167",
        "D": "-0.0000024327",
        "E": "2",
        "Tmin": "253.15",
        "Tmax": "450"
    },
    "VaporViscosity": {
        "eqno": "102",
        "A": "1.9935E-07",
        "B": "0.70293",
        "C": "200.97",
        "D": "-2040.7",
        "Tmin": "277.39",
        "Tmax": "1000"
    },
    "LiquidThermalConductivity": {
        "eqno": "16",
        "A": "0.14679",
        "B": "201570",
        "C": "-2097.5",
        "D": "7.255",
        "E": "-0.0083973",
        "Tmin": "273.15",
        "Tmax": "373.15"
    },
    "VaporThermalConductivity": {
        "eqno": "102",
        "A": "1221.5",
        "B": "0.95117",
        "C": "8.0014E+09",
        "D": "-2.8255E+11",
        "Tmin": "195.56",
        "Tmax": "990.95"
    },
    "SurfaceTension": {
        "eqno": "16",
        "A": "-0.066781",
        "B": "-45.948",
        "C": "-1.8289",
        "D": "-0.0013347",
        "E": "-5.553E-08",
        "Tmin": "273.15",
        "Tmax": "503.15"
    },
    "RPPHeatCapacityCp": {
        "eqno": "100",
        "A": "45979",
        "B": "140.41",
        "C": "0.78405",
        "D": "-0.0011412",
        "E": "4.6619E-07",
        "Tmin": "200",
        "Tmax": "1000"
    },
    "RelativeStaticPermittivity": {
        "eqno": "120",
        "A": "-13.20079",
        "B": "-6950",
        "C": "-41.7",
        "Tmin": "279.15",
        "Tmax": "449.15"
    },
    "AntoineVaporPressure": {
        "eqno": "10",
        "A": "21.459",
        "B": "3044",
        "C": "-104.53",
        "Tmin": "353.15",
        "Tmax": "526.12"
    },
    "LiquidViscosityRPS": {
        "eqno": "12",
        "A": "1.4416",
        "B": "-0.023533",
        "Tmin": "253.15",
        "Tmax": "420"
    },
    "COSTALDVolume": "0.335285",
    "DiameterLJ": "6.40751E-10",
    "EnergyLJ": "309.2331",
    "RacketParameter": "0.262",
    "FullerVolume": "113.33",
    "MatthiasCopemanC2": "-0.0103",
    "Parachor": "0.0436411",
    "SpecificGravity": "0.819862",
    "Charge": "0",
    "CostaldAcentricFactor": "0.579",
    "WilsonVolume": "0.10863",
    "UniquacR": "4.5987",
    "UniquacQ": "4.208",
    "MatthiasCopemanC3": "1.3301",
    "ChaoSeaderAcentricFactor": "0.579",
    "ChaoSeaderSolubilityParameter": "22520",
    "ChaoSeaderLiquidVolume": "0.10863",
    "UnifacVLE": {
        "group": "1"
    },
    "UnifacLLE": {
        "group": "1"
    },
    "Asog": {
        "group": "1"
    },
    "GCmethod": {
        "group": "1"
    },
    "Umr": {
        "group": "1"
    },
    "ModifiedUnifac": {
        "group": "1"
    },
    "CAS": "71-41-0",
    "Smiles": "CCCCCO"
}