{
    "LibraryIndex": "710",
    "CompoundID": "1-phenylnaphthalene",
    "StructureFormula": "(C6H4)(C4H3)(C6H5)",
    "Family": "19",
    "CriticalTemperature": "849",
    "CriticalPressure": "2630000",
    "CriticalVolume": "0.656",
    "CriticalCompressibility": "0.244",
    "NormalBoilingPointTemperature": "607.15",
    "NormalMeltingPointTemperature": "318.15",
    "TriplePointTemperature": "318.15",
    "TriplePointPressure": "0.282425",
    "MolecularWeight": "204.2665",
    "LiquidVolumeAtNormalBoilingPoint": "0.189925",
    "AcentricityFactor": "0.530878",
    "RadiusOfGyration": "5.641E-10",
    "SolubilityParameter": "19910",
    "DipoleMoment": "0",
    "VanDerWaalsVolume": "0.1165",
    "VanDerWaalsArea": "1.296E+09",
    "HeatOfFormation": "2.47E+08",
    "GibbsEnergyOfFormation": "3.71108E+08",
    "AbsEntropy": "459000",
    "HeatOfFusionAtMeltingPoint": "0",
    "HeatOfCombustion": "-7.92E+09",
    "SolidDensity": {
        "eqno": "2",
        "A": "5.3654",
        "B": "-3.9158E-09",
        "Tmin": "293.15",
        "Tmax": "302.65"
    },
    "LiquidDensity": {
        "eqno": "105",
        "A": "0.36822",
        "B": "0.24155",
        "C": "849",
        "D": "0.29048",
        "Tmin": "298.15",
        "Tmax": "849"
    },
    "VaporPressure": {
        "eqno": "101",
        "A": "136.2471",
        "B": "-14614.66",
        "C": "-16.02104",
        "D": "5.425361E-06",
        "E": "2",
        "Tmin": "318.15",
        "Tmax": "849"
    },
    "HeatOfVaporization": {
        "eqno": "106",
        "A": "1.0967E+08",
        "B": "1.3201",
        "C": "-2.3901",
        "D": "2.4598",
        "E": "-0.96728",
        "Tmin": "318.15",
        "Tmax": "849"
    },
    "SolidHeatCapacityCp": {
        "eqno": "100",
        "A": "-5568.7",
        "B": "1416",
        "C": "-6.3534",
        "D": "0.022718",
        "E": "-0.000029424",
        "Tmin": "50",
        "Tmax": "318.15"
    },
    "LiquidHeatCapacityCp": {
        "eqno": "16",
        "A": "180260",
        "B": "-2.5213",
        "C": "10.037",
        "D": "0.0072742",
        "E": "-0.0000049656",
        "Tmin": "318.15",
        "Tmax": "607.15"
    },
    "IdealGasHeatCapacityCp": {
        "eqno": "16",
        "A": "77509",
        "B": "-521.03",
        "C": "13.602",
        "D": "-0.000094316",
        "E": "9.2363E-09",
        "Tmin": "273",
        "Tmax": "1500"
    },
    "SecondVirialCoefficient": {
        "eqno": "104",
        "A": "0.47323",
        "B": "-716.5",
        "C": "-343.69",
        "D": "-698990",
        "E": "1354800",
        "Tmin": "424.5",
        "Tmax": "2000"
    },
    "LiquidViscosity": {
        "eqno": "101",
        "A": "-6.144",
        "B": "1205.6",
        "C": "-0.56682",
        "D": "-0.0000005706",
        "E": "2",
        "Tmin": "318.15",
        "Tmax": "764.1"
    },
    "VaporViscosity": {
        "eqno": "102",
        "A": "0.0000030793",
        "B": "0.30949",
        "C": "742.15",
        "D": "16342",
        "Tmin": "607.15",
        "Tmax": "1000"
    },
    "LiquidThermalConductivity": {
        "eqno": "16",
        "A": "-0.052282",
        "B": "-21.251",
        "C": "-1.3126",
        "D": "-0.00073663",
        "E": "-3.6032E-07",
        "Tmin": "318.15",
        "Tmax": "607.15"
    },
    "VaporThermalConductivity": {
        "eqno": "102",
        "A": "0.000092251",
        "B": "0.99676",
        "C": "619.05",
        "D": "42835",
        "Tmin": "318.15",
        "Tmax": "1000"
    },
    "SurfaceTension": {
        "eqno": "16",
        "A": "-0.0092731",
        "B": "179.4",
        "C": "-3.7906",
        "D": "0.0020974",
        "E": "-0.0000040352",
        "Tmin": "318.15",
        "Tmax": "849"
    },
    "RPPHeatCapacityCp": {
        "eqno": "4",
        "A": "-76343",
        "B": "1203.5",
        "C": "-0.80842",
        "D": "0.00020016",
        "Tmin": "300",
        "Tmax": "1500"
    },
    "AntoineVaporPressure": {
        "eqno": "10",
        "A": "21.23",
        "B": "4746.4",
        "C": "-118.29",
        "Tmin": "513.73",
        "Tmax": "742.83"
    },
    "LiquidViscosityRPS": {
        "eqno": "13",
        "A": "-0.84135",
        "B": "-0.019285",
        "C": "0.000012308",
        "Tmin": "318.15",
        "Tmax": "678.15"
    },
    "COSTALDVolume": "0.664833",
    "DiameterLJ": "8.810728E-10",
    "EnergyLJ": "345.4811",
    "FullerVolume": "227.22",
    "Parachor": "0.0865",
    "SpecificGravity": "1.097",
    "Charge": "0",
    "CostaldAcentricFactor": "0.530878",
    "WilsonVolume": "0.189925",
    "UniquacR": "7.679631",
    "UniquacQ": "5.184",
    "ChaoSeaderAcentricFactor": "0.530878",
    "ChaoSeaderSolubilityParameter": "19911.7",
    "ChaoSeaderLiquidVolume": "0.189925",
    "UnifacVLE": {
        "group": "4"
    },
    "UnifacLLE": {
        "group": "4"
    },
    "Asog": {
        "group": "4"
    },
    "GCmethod": {
        "group": "2"
    },
    "Umr": {
        "group": "4"
    },
    "ModifiedUnifac": {
        "group": "4"
    },
    "CAS": "605-02-7",
    "Smiles": "c1(c2ccccc2)cccc2ccccc21"
}