{
    "LibraryIndex": "1103",
    "CompoundID": "1-propanol",
    "StructureFormula": "CH3(CH2)2OH",
    "Family": "27",
    "CriticalTemperature": "536.78",
    "CriticalPressure": "5175000",
    "CriticalVolume": "0.219",
    "CriticalCompressibility": "0.254",
    "NormalBoilingPointTemperature": "370.93",
    "NormalMeltingPointTemperature": "146.95",
    "TriplePointTemperature": "146.95",
    "TriplePointPressure": "3.69121E-07",
    "MolecularWeight": "60.09502",
    "LiquidVolumeAtNormalBoilingPoint": "0.07514",
    "AcentricityFactor": "0.629",
    "RadiusOfGyration": "2.7359E-10",
    "SolubilityParameter": "24450",
    "DipoleMoment": "5.6E-30",
    "VanDerWaalsVolume": "0.04217",
    "VanDerWaalsArea": "6.28E+08",
    "HeatOfFormation": "-2.552E+08",
    "GibbsEnergyOfFormation": "-1.599E+08",
    "AbsEntropy": "322470",
    "HeatOfFusionAtMeltingPoint": "5372000",
    "MatthiasCopemanC1": "1.1406",
    "HeatOfCombustion": "-1.84381E+09",
    "SolidDensity": {
        "eqno": "2",
        "A": "18.17",
        "B": "-0.0024097",
        "Tmin": "146.95",
        "Tmax": "156.45"
    },
    "LiquidDensity": {
        "eqno": "105",
        "A": "1.1537",
        "B": "0.26188",
        "C": "536.78",
        "D": "0.23549",
        "Tmin": "146.95",
        "Tmax": "536.65"
    },
    "VaporPressure": {
        "eqno": "101",
        "A": "141.3971",
        "B": "-10434.27",
        "C": "-17.45829",
        "D": "0.0000113246",
        "E": "2",
        "Tmin": "146.95",
        "Tmax": "536.85"
    },
    "HeatOfVaporization": {
        "eqno": "106",
        "A": "8.36461E+07",
        "B": "3.338812",
        "C": "-9.831137",
        "D": "11.8901",
        "E": "-4.905709",
        "Tmin": "146.95",
        "Tmax": "536.85"
    },
    "SolidHeatCapacityCp": {
        "eqno": "100",
        "A": "-11319",
        "B": "1041",
        "C": "-3.5625",
        "D": "-0.011478",
        "E": "0.00010513",
        "Tmin": "15",
        "Tmax": "148.74"
    },
    "LiquidHeatCapacityCp": {
        "eqno": "16",
        "A": "100520",
        "B": "125.3",
        "C": "4.7194",
        "D": "0.024513",
        "E": "-0.000019669",
        "Tmin": "146.95",
        "Tmax": "400"
    },
    "IdealGasHeatCapacityCp": {
        "eqno": "16",
        "A": "56681",
        "B": "-627.22",
        "C": "12.379",
        "D": "0.00012228",
        "E": "-5.0293E-08",
        "Tmin": "150",
        "Tmax": "1500"
    },
    "SecondVirialCoefficient": {
        "eqno": "104",
        "A": "0.037896",
        "B": "-44.849",
        "C": "-35.117",
        "D": "410.57",
        "E": "-27077",
        "Tmin": "295.19",
        "Tmax": "1500"
    },
    "LiquidViscosity": {
        "eqno": "101",
        "A": "-98.08798",
        "B": "4904.749",
        "C": "13.57131",
        "D": "-0.0000219968",
        "E": "2",
        "Tmin": "146.95",
        "Tmax": "523"
    },
    "VaporViscosity": {
        "eqno": "102",
        "A": "7.9322E-07",
        "B": "0.54936",
        "C": "416.77",
        "D": "-100.81",
        "Tmin": "200",
        "Tmax": "1000"
    },
    "LiquidThermalConductivity": {
        "eqno": "16",
        "A": "0.076645",
        "B": "-189.91",
        "C": "-0.13475",
        "D": "-0.0069283",
        "E": "0.0000033645",
        "Tmin": "164.06",
        "Tmax": "380.35"
    },
    "VaporThermalConductivity": {
        "eqno": "102",
        "A": "-453.4",
        "B": "0.64532",
        "C": "-2.843E+08",
        "D": "-2.8865E+10",
        "Tmin": "146.95",
        "Tmax": "720.25"
    },
    "SurfaceTension": {
        "eqno": "16",
        "A": "-0.0044121",
        "B": "-393.81",
        "C": "0.44289",
        "D": "-0.010936",
        "E": "0.0000062593",
        "Tmin": "283.15",
        "Tmax": "370.35"
    },
    "RPPHeatCapacityCp": {
        "eqno": "100",
        "A": "39178",
        "B": "54.585",
        "C": "0.52464",
        "D": "-0.00069351",
        "E": "2.6739E-07",
        "Tmin": "50",
        "Tmax": "1000"
    },
    "RelativeStaticPermittivity": {
        "eqno": "120",
        "A": "-17.3",
        "B": "-10000",
        "C": "-30",
        "Tmin": "243",
        "Tmax": "536"
    },
    "AntoineVaporPressure": {
        "eqno": "10",
        "A": "22.11",
        "B": "2968.4",
        "C": "-89.944",
        "Tmin": "323.15",
        "Tmax": "482.63"
    },
    "LiquidViscosityRPS": {
        "eqno": "13",
        "A": "16.105",
        "B": "-0.12454",
        "C": "0.00016492",
        "Tmin": "146.95",
        "Tmax": "370.35"
    },
    "COSTALDVolume": "0.23623",
    "DiameterLJ": "4.71E-10",
    "EnergyLJ": "495",
    "RacketParameter": "0.2451",
    "FullerVolume": "72.28999",
    "MatthiasCopemanC2": "2.198",
    "Parachor": "0.0293982",
    "SpecificGravity": "0.804",
    "Charge": "0",
    "CostaldAcentricFactor": "0.62489",
    "WilsonVolume": "0.0749393",
    "UniquacR": "2.78",
    "UniquacQ": "2.51",
    "UniquacQP": "0.89",
    "ApiSrkS1": "0.169684",
    "ApiSrkS2": "1.188769",
    "MatthiasCopemanC3": "-4.4989",
    "ChaoSeaderAcentricFactor": "0.623",
    "ChaoSeaderSolubilityParameter": "24557.3",
    "ChaoSeaderLiquidVolume": "0.0749393",
    "UnifacVLE": {
        "group": "1"
    },
    "UnifacLLE": {
        "group": "1"
    },
    "Asog": {
        "group": "1"
    },
    "GCmethod": {
        "group": "1"
    },
    "Umr": {
        "group": "1"
    },
    "ModifiedUnifac": {
        "group": "1"
    },
    "CAS": "71-23-8",
    "Smiles": "CCCO"
}