{
    "LibraryIndex": "261",
    "CompoundID": "1-undecene",
    "StructureFormula": "CH3(CH2)8CHCH2",
    "Family": "9",
    "CriticalTemperature": "637.8",
    "CriticalPressure": "2044000",
    "CriticalVolume": "0.657",
    "CriticalCompressibility": "0.253",
    "NormalBoilingPointTemperature": "465.82",
    "NormalMeltingPointTemperature": "223.99",
    "TriplePointTemperature": "223.99",
    "TriplePointPressure": "0.0473",
    "MolecularWeight": "154.2924",
    "LiquidVolumeAtNormalBoilingPoint": "0.2065",
    "AcentricityFactor": "0.522466",
    "RadiusOfGyration": "5.485E-10",
    "SolubilityParameter": "15680",
    "DipoleMoment": "1.8E-30",
    "VanDerWaalsVolume": "0.1159",
    "VanDerWaalsArea": "1.586E+09",
    "HeatOfFormation": "-1.449E+08",
    "GibbsEnergyOfFormation": "1.283E+08",
    "AbsEntropy": "582180",
    "HeatOfFusionAtMeltingPoint": "1.699E+07",
    "MatthiasCopemanC1": "1.3343",
    "HeatOfCombustion": "-6.7878E+09",
    "SolidDensity": {
        "eqno": "2",
        "A": "6.5724",
        "B": "-0.0032733",
        "C": "0",
        "D": "0",
        "E": "0",
        "Tmin": "89.6",
        "Tmax": "223.99"
    },
    "LiquidDensity": {
        "eqno": "105",
        "A": "0.38001",
        "B": "0.24991",
        "C": "637.8",
        "D": "0.28571",
        "Tmin": "223.99",
        "Tmax": "637.8"
    },
    "VaporPressure": {
        "eqno": "101",
        "A": "93.64799",
        "B": "-9306.494",
        "C": "-10.26144",
        "D": "4.149832E-06",
        "E": "2",
        "Tmin": "223.99",
        "Tmax": "637.9"
    },
    "HeatOfVaporization": {
        "eqno": "106",
        "A": "2.3696E+07",
        "B": "-6.3933",
        "C": "18.084",
        "D": "-19.033",
        "E": "7.4719",
        "Tmin": "223.99",
        "Tmax": "616.02"
    },
    "SolidHeatCapacityCp": {
        "eqno": "100",
        "A": "-40578",
        "B": "-2250300",
        "C": "33508",
        "D": "-165.17",
        "E": "0.26994",
        "Tmin": "217.3",
        "Tmax": "226.8"
    },
    "LiquidHeatCapacityCp": {
        "eqno": "16",
        "A": "99868",
        "B": "144.48",
        "C": "10.69",
        "D": "0.0042614",
        "E": "-0.0000010791",
        "Tmin": "223.99",
        "Tmax": "591.88"
    },
    "IdealGasHeatCapacityCp": {
        "eqno": "16",
        "A": "138670",
        "B": "-549.63",
        "C": "13.4",
        "D": "0.00014861",
        "E": "-5.2026E-08",
        "Tmin": "273",
        "Tmax": "1500"
    },
    "SecondVirialCoefficient": {
        "eqno": "104",
        "A": "0.46674",
        "B": "-604.66",
        "C": "-91.632",
        "D": "-141600",
        "E": "329750",
        "Tmin": "318.9",
        "Tmax": "1773"
    },
    "LiquidViscosity": {
        "eqno": "101",
        "A": "-49.01257",
        "B": "2643.166",
        "C": "5.957949",
        "D": "-8.451873E-06",
        "E": "2",
        "Tmin": "223.99",
        "Tmax": "523.15"
    },
    "VaporViscosity": {
        "eqno": "102",
        "A": "5.0406E-08",
        "B": "0.85093",
        "C": "112.38",
        "D": "-8900.1",
        "Tmin": "223.99",
        "Tmax": "1000"
    },
    "LiquidThermalConductivity": {
        "eqno": "16",
        "A": "0.067847",
        "B": "-250.41",
        "C": "0.40201",
        "D": "-0.0082828",
        "E": "0.0000014058",
        "Tmin": "223.99",
        "Tmax": "465.82"
    },
    "VaporThermalConductivity": {
        "eqno": "102",
        "A": "0.000018335",
        "B": "1.3031",
        "C": "709.58",
        "D": "-2804.6",
        "Tmin": "223.99",
        "Tmax": "1000"
    },
    "SurfaceTension": {
        "eqno": "16",
        "A": "-0.0077397",
        "B": "78.944",
        "C": "-3.6355",
        "D": "0.0014924",
        "E": "-0.0000057786",
        "Tmin": "223.99",
        "Tmax": "616.02"
    },
    "RPPHeatCapacityCp": {
        "eqno": "4",
        "A": "-7374.7",
        "B": "1015.1",
        "C": "-0.57607",
        "D": "0.00012723",
        "Tmin": "273.16",
        "Tmax": "1500"
    },
    "AntoineVaporPressure": {
        "eqno": "10",
        "A": "21.051",
        "B": "3677.5",
        "C": "-79.724",
        "Tmin": "383.57",
        "Tmax": "573.15"
    },
    "LiquidViscosityRPS": {
        "eqno": "12",
        "A": "-3.5498",
        "B": "-0.01112",
        "Tmin": "223.99",
        "Tmax": "523.15"
    },
    "COSTALDVolume": "0.660788",
    "DiameterLJ": "8.440253E-10",
    "EnergyLJ": "295.6865",
    "RacketParameter": "0.253",
    "FullerVolume": "225.72",
    "MatthiasCopemanC2": "-0.793",
    "Parachor": "0.080937",
    "SpecificGravity": "0.754663",
    "Charge": "0",
    "CostaldAcentricFactor": "0.522466",
    "WilsonVolume": "0.2065",
    "UniquacR": "7.6417",
    "UniquacQ": "6.344",
    "ApiSrkS2": "0.010786",
    "MatthiasCopemanC3": "1.6965",
    "ChaoSeaderAcentricFactor": "0.522466",
    "ChaoSeaderSolubilityParameter": "15680",
    "ChaoSeaderLiquidVolume": "0.2065",
    "UnifacVLE": {
        "group": "1"
    },
    "UnifacLLE": {
        "group": "1"
    },
    "Asog": {
        "group": "1"
    },
    "GCmethod": {
        "group": "1"
    },
    "Umr": {
        "group": "1"
    },
    "ModifiedUnifac": {
        "group": "1"
    },
    "CAS": "821-95-4",
    "Smiles": "C=CCCCCCCCCC"
}