{
    "LibraryIndex": "25",
    "CompoundID": "2,2,3-trimethylbutane",
    "StructureFormula": "(CH3)3CCH(CH3)2",
    "Family": "4",
    "CriticalTemperature": "531.1",
    "CriticalPressure": "2950000",
    "CriticalVolume": "0.3976",
    "CriticalCompressibility": "0.266",
    "NormalBoilingPointTemperature": "354.01",
    "NormalMeltingPointTemperature": "248.253",
    "TriplePointTemperature": "248.57",
    "TriplePointPressure": "914.054",
    "MolecularWeight": "100.202",
    "LiquidVolumeAtNormalBoilingPoint": "0.14615",
    "AcentricityFactor": "0.25",
    "RadiusOfGyration": "3.96E-10",
    "SolubilityParameter": "14250",
    "DipoleMoment": "0",
    "VanDerWaalsVolume": "0.07846",
    "VanDerWaalsArea": "1.117E+09",
    "HeatOfFormation": "-2.04765E+08",
    "GibbsEnergyOfFormation": "4600000",
    "AbsEntropy": "383340",
    "HeatOfFusionAtMeltingPoint": "2261030",
    "MatthiasCopemanC1": "0.90201",
    "HeatOfCombustion": "-4.45223E+09",
    "SolidDensity": {
        "eqno": "2",
        "A": "9.2018",
        "B": "-0.0041183",
        "C": "0",
        "D": "0",
        "E": "0",
        "Tmin": "99.43",
        "Tmax": "248.57"
    },
    "LiquidDensity": {
        "eqno": "105",
        "A": "0.36152",
        "B": "0.20413",
        "C": "531.16",
        "D": "0.1958",
        "Tmin": "248.57",
        "Tmax": "531.15"
    },
    "VaporPressure": {
        "eqno": "101",
        "A": "68.92285",
        "B": "-5729.492",
        "C": "-7.139255",
        "D": "5.482993E-06",
        "E": "2",
        "Tmin": "248.57",
        "Tmax": "532.22"
    },
    "HeatOfVaporization": {
        "eqno": "106",
        "A": "4.4282E+07",
        "B": "0.37696",
        "C": "0.13995",
        "D": "-0.28638",
        "E": "0.1473",
        "Tmin": "248.57",
        "Tmax": "531.1"
    },
    "SolidHeatCapacityCp": {
        "eqno": "100",
        "A": "-88737",
        "B": "3960",
        "C": "-26.907",
        "D": "0.088352",
        "E": "-0.00010431",
        "Tmin": "109.37",
        "Tmax": "248.58"
    },
    "LiquidHeatCapacityCp": {
        "eqno": "16",
        "A": "95157",
        "B": "-51.889",
        "C": "10.538",
        "D": "0.0057229",
        "E": "-0.0000043706",
        "Tmin": "248.57",
        "Tmax": "354.03"
    },
    "IdealGasHeatCapacityCp": {
        "eqno": "16",
        "A": "64561",
        "B": "-425.21",
        "C": "12.779",
        "D": "0.00055174",
        "E": "-1.7221E-07",
        "Tmin": "200",
        "Tmax": "1500"
    },
    "SecondVirialCoefficient": {
        "eqno": "104",
        "A": "0.14216",
        "B": "-209.59",
        "C": "-43.536",
        "D": "-1884.6",
        "E": "974.47",
        "Tmin": "248.57",
        "Tmax": "1500"
    },
    "LiquidViscosity": {
        "eqno": "101",
        "A": "15.143",
        "B": "240.01",
        "C": "-4.2433",
        "D": "0.0000080652",
        "E": "2",
        "Tmin": "248.57",
        "Tmax": "400"
    },
    "VaporViscosity": {
        "eqno": "102",
        "A": "8.5825E-08",
        "B": "0.78963",
        "C": "152.98",
        "D": "-29510",
        "Tmin": "343.45",
        "Tmax": "535.25"
    },
    "LiquidThermalConductivity": {
        "eqno": "16",
        "A": "0.044619",
        "B": "-214.12",
        "C": "0.30167",
        "D": "-0.0096656",
        "E": "0.0000053979",
        "Tmin": "248.57",
        "Tmax": "354.03"
    },
    "VaporThermalConductivity": {
        "eqno": "102",
        "A": "0.000030164",
        "B": "1.1874",
        "C": "-102.65",
        "D": "141040",
        "Tmin": "248.57",
        "Tmax": "1000"
    },
    "SurfaceTension": {
        "eqno": "16",
        "A": "-0.029346",
        "B": "-148.89",
        "C": "-1.2217",
        "D": "-0.0050964",
        "E": "0.0000023937",
        "Tmin": "248.57",
        "Tmax": "531.1"
    },
    "RPPHeatCapacityCp": {
        "eqno": "100",
        "A": "-5911.6",
        "B": "611.63",
        "C": "-0.083727",
        "D": "-0.00025093",
        "E": "1.3162E-07",
        "Tmin": "200",
        "Tmax": "1000"
    },
    "RelativeStaticPermittivity": {
        "eqno": "120",
        "A": "-1.404923",
        "B": "-950",
        "C": "-5.7",
        "Tmin": "274.15",
        "Tmax": "444.15"
    },
    "AntoineVaporPressure": {
        "eqno": "10",
        "A": "20.742",
        "B": "2891.8",
        "C": "-40.291",
        "Tmin": "320.3",
        "Tmax": "472.71"
    },
    "LiquidViscosityRPS": {
        "eqno": "12",
        "A": "-3.9222",
        "B": "-0.01192",
        "Tmin": "248.57",
        "Tmax": "354.03"
    },
    "COSTALDVolume": "0.425775",
    "DiameterLJ": "6.722577E-10",
    "EnergyLJ": "294.8922",
    "RacketParameter": "0.266",
    "FullerVolume": "148.26",
    "MatthiasCopemanC2": "-0.33657",
    "Parachor": "0.0538741",
    "SpecificGravity": "0.694069",
    "Charge": "0",
    "CostaldAcentricFactor": "0.25",
    "WilsonVolume": "0.14615",
    "UniquacR": "5.1719",
    "UniquacQ": "4.468",
    "MatthiasCopemanC3": "0.64331",
    "ChaoSeaderAcentricFactor": "0.25",
    "ChaoSeaderSolubilityParameter": "14250",
    "ChaoSeaderLiquidVolume": "0.14615",
    "UnifacVLE": {
        "group": "1"
    },
    "UnifacLLE": {
        "group": "1"
    },
    "Asog": {
        "group": "1"
    },
    "GCmethod": {
        "group": "1"
    },
    "Umr": {
        "group": "1"
    },
    "ModifiedUnifac": {
        "group": "1"
    },
    "CAS": "464-06-2",
    "Smiles": "CC(C)(C)C(C)C"
}