{
    "LibraryIndex": "41",
    "CompoundID": "2,2,4-trimethylpentane",
    "StructureFormula": "(CH3)3CCH2CH(CH3)2",
    "Family": "4",
    "CriticalTemperature": "543.9",
    "CriticalPressure": "2570000",
    "CriticalVolume": "0.4697",
    "CriticalCompressibility": "0.266",
    "NormalBoilingPointTemperature": "372.39",
    "NormalMeltingPointTemperature": "165.777",
    "TriplePointTemperature": "165.777",
    "TriplePointPressure": "0.0170695",
    "MolecularWeight": "114.2285",
    "LiquidVolumeAtNormalBoilingPoint": "0.16607",
    "AcentricityFactor": "0.304",
    "RadiusOfGyration": "4.091E-10",
    "SolubilityParameter": "14080",
    "DipoleMoment": "0",
    "VanDerWaalsVolume": "0.08869",
    "VanDerWaalsArea": "1.252E+09",
    "HeatOfFormation": "-2.2401E+08",
    "GibbsEnergyOfFormation": "1.394E+07",
    "AbsEntropy": "422960",
    "HeatOfFusionAtMeltingPoint": "9196000",
    "MatthiasCopemanC1": "0.97675",
    "HeatOfCombustion": "-5.06528E+09",
    "SolidDensity": {
        "eqno": "2",
        "A": "8.773",
        "B": "-0.0058781",
        "Tmin": "66.31",
        "Tmax": "165.78"
    },
    "LiquidDensity": {
        "eqno": "105",
        "A": "0.48523",
        "B": "0.24924",
        "C": "543.9",
        "D": "0.25602",
        "Tmin": "165.78",
        "Tmax": "543.89"
    },
    "VaporPressure": {
        "eqno": "101",
        "A": "83.71044",
        "B": "-6701.601",
        "C": "-9.312194",
        "D": "6.808451E-06",
        "E": "2",
        "Tmin": "165.78",
        "Tmax": "543.89"
    },
    "HeatOfVaporization": {
        "eqno": "106",
        "A": "4.633E+07",
        "B": "0.37451",
        "C": "-0.066775",
        "D": "-0.010135",
        "E": "0.080832",
        "Tmin": "165.78",
        "Tmax": "543.8"
    },
    "SolidHeatCapacityCp": {
        "eqno": "100",
        "A": "3861.3",
        "B": "1005.9",
        "C": "-1.0592",
        "D": "0.0042173",
        "E": "-0.0000083422",
        "Tmin": "10",
        "Tmax": "165.79"
    },
    "LiquidHeatCapacityCp": {
        "eqno": "16",
        "A": "159470",
        "B": "-380.54",
        "C": "12.372",
        "D": "-0.00044236",
        "E": "0.0000034887",
        "Tmin": "165.78",
        "Tmax": "520"
    },
    "IdealGasHeatCapacityCp": {
        "eqno": "16",
        "A": "84635",
        "B": "-470.35",
        "C": "13.011",
        "D": "0.00041124",
        "E": "-1.2926E-07",
        "Tmin": "200",
        "Tmax": "1500"
    },
    "SecondVirialCoefficient": {
        "eqno": "104",
        "A": "0.26688",
        "B": "-321.67",
        "C": "-47.437",
        "D": "-5317.2",
        "E": "7275.9",
        "Tmin": "271.9",
        "Tmax": "1771"
    },
    "LiquidViscosity": {
        "eqno": "101",
        "A": "-22.241",
        "B": "1365.6",
        "C": "1.8379",
        "D": "-0.0000051189",
        "E": "2",
        "Tmin": "165.78",
        "Tmax": "543.9"
    },
    "VaporViscosity": {
        "eqno": "102",
        "A": "1.9933E-07",
        "B": "0.67222",
        "C": "163.02",
        "D": "-5306.3",
        "Tmin": "165.78",
        "Tmax": "1000"
    },
    "LiquidThermalConductivity": {
        "eqno": "16",
        "A": "0.044744",
        "B": "-42.414",
        "C": "-1.7361",
        "D": "-0.0023225",
        "E": "-0.0000040597",
        "Tmin": "165.78",
        "Tmax": "372.39"
    },
    "VaporThermalConductivity": {
        "eqno": "102",
        "A": "0.000011401",
        "B": "1.3632",
        "C": "286.23",
        "D": "6065.2",
        "Tmin": "165.777",
        "Tmax": "1000"
    },
    "SurfaceTension": {
        "eqno": "16",
        "A": "-0.0097592",
        "B": "31.944",
        "C": "-3.3103",
        "D": "0.0003744",
        "E": "-0.0000053994",
        "Tmin": "165.78",
        "Tmax": "543.8"
    },
    "RPPHeatCapacityCp": {
        "eqno": "100",
        "A": "3192.8",
        "B": "640.7",
        "C": "0.055291",
        "D": "-0.0004627",
        "E": "2.1776E-07",
        "Tmin": "200",
        "Tmax": "1000"
    },
    "RelativeStaticPermittivity": {
        "eqno": "120",
        "A": "-2.197557",
        "B": "-1450",
        "C": "-8.7",
        "Tmin": "274.15",
        "Tmax": "444.15"
    },
    "AntoineVaporPressure": {
        "eqno": "10",
        "A": "20.714",
        "B": "2972",
        "C": "-48.851",
        "Tmin": "327.85",
        "Tmax": "488.15"
    },
    "LiquidViscosityRPS": {
        "eqno": "13",
        "A": "-1.727",
        "B": "-0.025461",
        "C": "0.000019917",
        "Tmin": "165.78",
        "Tmax": "541.15"
    },
    "COSTALDVolume": "0.47894",
    "DiameterLJ": "7.106578E-10",
    "EnergyLJ": "301.9995",
    "FullerVolume": "168.78",
    "MatthiasCopemanC2": "-0.38564",
    "Parachor": "0.0608",
    "SpecificGravity": "0.694955",
    "Charge": "0",
    "CostaldAcentricFactor": "0.3045",
    "WilsonVolume": "0.165452",
    "UniquacR": "5.85",
    "UniquacQ": "4.94",
    "ApiSrkS2": "-0.004045",
    "MatthiasCopemanC3": "0.82187",
    "ChaoSeaderAcentricFactor": "0.3033",
    "ChaoSeaderSolubilityParameter": "14050.5",
    "ChaoSeaderLiquidVolume": "0.165452",
    "UnifacVLE": {
        "group": "1"
    },
    "UnifacLLE": {
        "group": "1"
    },
    "Asog": {
        "group": "1"
    },
    "GCmethod": {
        "group": "1"
    },
    "Umr": {
        "group": "1"
    },
    "ModifiedUnifac": {
        "group": "1"
    },
    "CAS": "540-84-1",
    "Smiles": "CC(C)(C)CC(C)C"
}