{
    "LibraryIndex": "44",
    "CompoundID": "2,2,3,3-tetramethylbutane",
    "StructureFormula": "(CH3)3CC(CH3)3",
    "Family": "4",
    "CriticalTemperature": "567.8",
    "CriticalPressure": "2870000",
    "CriticalVolume": "0.482",
    "CriticalCompressibility": "0.28",
    "NormalBoilingPointTemperature": "379.44",
    "NormalMeltingPointTemperature": "373.84",
    "TriplePointTemperature": "373.96",
    "TriplePointPressure": "86930.2",
    "MolecularWeight": "114.2285",
    "LiquidVolumeAtNormalBoilingPoint": "0.13902",
    "AcentricityFactor": "0.248",
    "RadiusOfGyration": "3.8146E-10",
    "SolubilityParameter": "12790",
    "DipoleMoment": "0",
    "VanDerWaalsVolume": "0.08868",
    "VanDerWaalsArea": "1.272E+09",
    "HeatOfFormation": "-2.256E+08",
    "GibbsEnergyOfFormation": "2.223E+07",
    "AbsEntropy": "389360",
    "HeatOfFusionAtMeltingPoint": "7540000",
    "MatthiasCopemanC1": "0.85792",
    "HeatOfCombustion": "-5.0558E+09",
    "SolidDensity": {
        "eqno": "2",
        "A": "8.4225",
        "B": "-0.0044705",
        "C": "0.0035846",
        "D": "-0.0000082784",
        "E": "7.021E-09",
        "Tmin": "183.15",
        "Tmax": "373.96"
    },
    "LiquidDensity": {
        "eqno": "105",
        "A": "0.61397",
        "B": "0.27674",
        "C": "567.8",
        "D": "0.28198",
        "Tmin": "367.55",
        "Tmax": "557.79"
    },
    "VaporPressure": {
        "eqno": "101",
        "A": "120.66",
        "B": "-8500.6",
        "C": "-14.863",
        "D": "0.000010649",
        "E": "2",
        "Tmin": "373.96",
        "Tmax": "568"
    },
    "HeatOfVaporization": {
        "eqno": "106",
        "A": "5.3062E+07",
        "B": "0.30484",
        "C": "0.85323",
        "D": "-1.2161",
        "E": "0.48282",
        "Tmin": "373.96",
        "Tmax": "557.79"
    },
    "SolidHeatCapacityCp": {
        "eqno": "100",
        "A": "-145070",
        "B": "3783.4",
        "C": "-18.811",
        "D": "0.04824",
        "E": "-0.000044479",
        "Tmin": "130.05",
        "Tmax": "365.79"
    },
    "LiquidHeatCapacityCp": {
        "eqno": "16",
        "A": "239620",
        "B": "55.905",
        "C": "3.1054",
        "D": "0.027363",
        "E": "-0.000020376",
        "Tmin": "373.96",
        "Tmax": "426"
    },
    "IdealGasHeatCapacityCp": {
        "eqno": "16",
        "A": "73914",
        "B": "-415.76",
        "C": "12.897",
        "D": "0.00056384",
        "E": "-1.6707E-07",
        "Tmin": "200",
        "Tmax": "1500"
    },
    "SecondVirialCoefficient": {
        "eqno": "104",
        "A": "0.27451",
        "B": "-340.85",
        "C": "-44.213",
        "D": "-18.617",
        "E": "-11352",
        "Tmin": "284",
        "Tmax": "1500"
    },
    "LiquidViscosity": {
        "eqno": "101",
        "A": "-17.538",
        "B": "1603.5",
        "C": "0.8804",
        "D": "-0.0000034564",
        "E": "2",
        "Tmin": "293.15",
        "Tmax": "473"
    },
    "VaporViscosity": {
        "eqno": "102",
        "A": "7.9099E-07",
        "B": "0.51128",
        "C": "412.18",
        "D": "-5389.1",
        "Tmin": "373.96",
        "Tmax": "1000"
    },
    "LiquidThermalConductivity": {
        "eqno": "16",
        "A": "-0.0058143",
        "B": "-354.88",
        "C": "0.79351",
        "D": "-0.0067293",
        "E": "0.0000023134",
        "Tmin": "373.96",
        "Tmax": "426"
    },
    "VaporThermalConductivity": {
        "eqno": "102",
        "A": "0.000012508",
        "B": "1.3068",
        "C": "-132.52",
        "D": "121650",
        "Tmin": "260",
        "Tmax": "1000"
    },
    "SurfaceTension": {
        "eqno": "16",
        "A": "-0.0045024",
        "B": "622.88",
        "C": "-8.8445",
        "D": "0.017204",
        "E": "-0.000023129",
        "Tmin": "293.15",
        "Tmax": "557.79"
    },
    "RPPHeatCapacityCp": {
        "eqno": "100",
        "A": "6385.5",
        "B": "606.54",
        "C": "0.13794",
        "D": "-0.00052564",
        "E": "2.3996E-07",
        "Tmin": "200",
        "Tmax": "1000"
    },
    "AntoineVaporPressure": {
        "eqno": "10",
        "A": "20.509",
        "B": "2922.6",
        "C": "-54.055",
        "Tmin": "374",
        "Tmax": "506.72"
    },
    "LiquidViscosityRPS": {
        "eqno": "12",
        "A": "-4.2178",
        "B": "-0.011395",
        "Tmin": "293.15",
        "Tmax": "454"
    },
    "COSTALDVolume": "0.486727",
    "DiameterLJ": "6.740172E-10",
    "EnergyLJ": "379.208",
    "RacketParameter": "0.28",
    "FullerVolume": "168.78",
    "MatthiasCopemanC2": "0",
    "Parachor": "0.0605327",
    "SpecificGravity": "0.726041",
    "Charge": "0",
    "CostaldAcentricFactor": "0.248",
    "WilsonVolume": "0.13902",
    "UniquacR": "5.8456",
    "UniquacQ": "5.088",
    "ApiSrkS2": "0.035734",
    "MatthiasCopemanC3": "0",
    "ChaoSeaderAcentricFactor": "0.248",
    "ChaoSeaderSolubilityParameter": "12790",
    "ChaoSeaderLiquidVolume": "0.13902",
    "UnifacVLE": {
        "group": "2"
    },
    "UnifacLLE": {
        "group": "2"
    },
    "Asog": {
        "group": "2"
    },
    "GCmethod": {
        "group": "2"
    },
    "Umr": {
        "group": "2"
    },
    "ModifiedUnifac": {
        "group": "2"
    },
    "CAS": "594-82-1",
    "Smiles": "CC(C)(C)C(C)(C)C"
}