{
    "LibraryIndex": "52",
    "CompoundID": "2,2,3,4-tetramethylpentane",
    "StructureFormula": "CH3C(CH3)2CH(CH3)CH(CH3)CH3",
    "Family": "4",
    "CriticalTemperature": "592.7",
    "CriticalPressure": "2530000",
    "CriticalVolume": "0.49",
    "CriticalCompressibility": "0.258",
    "NormalBoilingPointTemperature": "406.18",
    "NormalMeltingPointTemperature": "152.06",
    "TriplePointTemperature": "152.06",
    "TriplePointPressure": "0.000053591",
    "MolecularWeight": "128.2551",
    "LiquidVolumeAtNormalBoilingPoint": "0.179229",
    "AcentricityFactor": "0.301",
    "RadiusOfGyration": "4.16E-10",
    "SolubilityParameter": "14730",
    "DipoleMoment": "0",
    "VanDerWaalsVolume": "0.09891",
    "VanDerWaalsArea": "1.386E+09",
    "HeatOfFormation": "-2.37358E+08",
    "GibbsEnergyOfFormation": "3.26352E+07",
    "AbsEntropy": "452834",
    "HeatOfFusionAtMeltingPoint": "500000",
    "MatthiasCopemanC1": "0.95146",
    "HeatOfCombustion": "-5.68208E+09",
    "SolidDensity": {
        "eqno": "2",
        "A": "8.2756",
        "B": "-0.0060479",
        "C": "0",
        "D": "0",
        "E": "0",
        "Tmin": "60.82",
        "Tmax": "152.06"
    },
    "LiquidDensity": {
        "eqno": "105",
        "A": "0.42889",
        "B": "0.24425",
        "C": "592.7",
        "D": "0.24983",
        "Tmin": "152.06",
        "Tmax": "592.6"
    },
    "VaporPressure": {
        "eqno": "101",
        "A": "137.07",
        "B": "-9700.5",
        "C": "-17.255",
        "D": "0.000012062",
        "E": "2",
        "Tmin": "152.06",
        "Tmax": "592.6"
    },
    "HeatOfVaporization": {
        "eqno": "106",
        "A": "5.771831E+07",
        "B": "1.016576",
        "C": "-1.835135",
        "D": "2.12911",
        "E": "-0.921819",
        "Tmin": "152.06",
        "Tmax": "592.6"
    },
    "SolidHeatCapacityCp": {
        "eqno": "1",
        "A": "249210",
        "Tmin": "0",
        "Tmax": "592.7"
    },
    "LiquidHeatCapacityCp": {
        "eqno": "16",
        "A": "177720",
        "B": "-50.337",
        "C": "8.3416",
        "D": "0.015008",
        "E": "-0.000013849",
        "Tmin": "152.06",
        "Tmax": "406.18"
    },
    "IdealGasHeatCapacityCp": {
        "eqno": "16",
        "A": "83946",
        "B": "-465.16",
        "C": "13.193",
        "D": "0.000328",
        "E": "-9.6189E-08",
        "Tmin": "150",
        "Tmax": "1500"
    },
    "SecondVirialCoefficient": {
        "eqno": "104",
        "A": "0.30123",
        "B": "-401.73",
        "C": "-67.509",
        "D": "-13419",
        "E": "21834",
        "Tmin": "296.08",
        "Tmax": "1892.08"
    },
    "LiquidViscosity": {
        "eqno": "101",
        "A": "-8.182",
        "B": "1248.5",
        "C": "-0.55988",
        "D": "-2.1902E-07",
        "E": "2",
        "Tmin": "152.06",
        "Tmax": "546.3"
    },
    "VaporViscosity": {
        "eqno": "102",
        "A": "3.9083E-07",
        "B": "0.57522",
        "C": "220.52",
        "D": "-776.34",
        "Tmin": "152.06",
        "Tmax": "1000"
    },
    "LiquidThermalConductivity": {
        "eqno": "16",
        "A": "-0.045924",
        "B": "4.3553",
        "C": "-1.6529",
        "D": "-0.00040588",
        "E": "-0.000001389",
        "Tmin": "152.06",
        "Tmax": "406.18"
    },
    "VaporThermalConductivity": {
        "eqno": "102",
        "A": "0.000019408",
        "B": "1.2262",
        "C": "-198.62",
        "D": "159810",
        "Tmin": "152.06",
        "Tmax": "1000"
    },
    "SurfaceTension": {
        "eqno": "16",
        "A": "-0.012296",
        "B": "16.67",
        "C": "-3.0272",
        "D": "-0.00038099",
        "E": "-0.0000033807",
        "Tmin": "152.06",
        "Tmax": "592.6"
    },
    "RPPHeatCapacityCp": {
        "eqno": "100",
        "A": "-45081",
        "B": "1026.9",
        "C": "-0.66774",
        "D": "0.00021534",
        "E": "-2.1701E-08",
        "Tmin": "200",
        "Tmax": "1000"
    },
    "RelativeStaticPermittivity": {
        "eqno": "120",
        "A": "-2.197557",
        "B": "-1450",
        "C": "-8.7",
        "Tmin": "274.15",
        "Tmax": "444.15"
    },
    "AntoineVaporPressure": {
        "eqno": "10",
        "A": "20.558",
        "B": "3122",
        "C": "-60.513",
        "Tmin": "360.74",
        "Tmax": "523.04"
    },
    "LiquidViscosityRPS": {
        "eqno": "12",
        "A": "-1.3033",
        "B": "-0.017906",
        "Tmin": "152.06",
        "Tmax": "474.08"
    },
    "COSTALDVolume": "0.550036",
    "DiameterLJ": "7.476529E-10",
    "EnergyLJ": "294.835",
    "RacketParameter": "0.258",
    "FullerVolume": "189.3",
    "MatthiasCopemanC2": "0",
    "Parachor": "0.066584",
    "SpecificGravity": "0.743261",
    "Charge": "0",
    "CostaldAcentricFactor": "0.301",
    "WilsonVolume": "0.179229",
    "UniquacR": "6.5199",
    "UniquacQ": "5.544",
    "ApiSrkS2": "-0.002088",
    "MatthiasCopemanC3": "0",
    "ChaoSeaderAcentricFactor": "0.301",
    "ChaoSeaderSolubilityParameter": "14730",
    "ChaoSeaderLiquidVolume": "0.179229",
    "UnifacVLE": {
        "group": "1"
    },
    "UnifacLLE": {
        "group": "1"
    },
    "Asog": {
        "group": "1"
    },
    "GCmethod": {
        "group": "1"
    },
    "Umr": {
        "group": "1"
    },
    "ModifiedUnifac": {
        "group": "1"
    },
    "CAS": "1186-53-4",
    "Smiles": "CC(C)(C)C(C)C(C)C"
}