{
    "LibraryIndex": "14",
    "CompoundID": "2,2-dimethylbutane",
    "StructureFormula": "CH3CH2C(CH3)3",
    "Family": "3",
    "CriticalTemperature": "488.7",
    "CriticalPressure": "3080000",
    "CriticalVolume": "0.3591",
    "CriticalCompressibility": "0.272",
    "NormalBoilingPointTemperature": "322.87",
    "NormalMeltingPointTemperature": "174.28",
    "TriplePointTemperature": "174.28",
    "TriplePointPressure": "4.0748",
    "MolecularWeight": "86.17536",
    "LiquidVolumeAtNormalBoilingPoint": "0.13373",
    "AcentricityFactor": "0.233",
    "RadiusOfGyration": "3.476E-10",
    "SolubilityParameter": "13770",
    "DipoleMoment": "0",
    "VanDerWaalsVolume": "0.06824",
    "VanDerWaalsArea": "9.83E+08",
    "HeatOfFormation": "-1.8468E+08",
    "GibbsEnergyOfFormation": "-8745000",
    "AbsEntropy": "358340",
    "HeatOfFusionAtMeltingPoint": "579100",
    "MatthiasCopemanC1": "0.8342",
    "HeatOfCombustion": "-3.8411E+09",
    "SolidDensity": {
        "eqno": "2",
        "A": "10.998",
        "B": "-0.0069098",
        "Tmin": "69.71",
        "Tmax": "174.28"
    },
    "LiquidDensity": {
        "eqno": "105",
        "A": "0.68727",
        "B": "0.26184",
        "C": "489.01",
        "D": "0.26217",
        "Tmin": "174.28",
        "Tmax": "489"
    },
    "VaporPressure": {
        "eqno": "101",
        "A": "94.2252",
        "B": "-6117.857",
        "C": "-11.25759",
        "D": "0.0000123761",
        "E": "2",
        "Tmin": "174.28",
        "Tmax": "489"
    },
    "HeatOfVaporization": {
        "eqno": "106",
        "A": "5.850808E+07",
        "B": "1.595989",
        "C": "-1.437803",
        "D": "0.0287957",
        "E": "0.293443",
        "Tmin": "174.28",
        "Tmax": "472.44"
    },
    "SolidHeatCapacityCp": {
        "eqno": "100",
        "A": "-19150",
        "B": "1973.9",
        "C": "-19.068",
        "D": "0.10881",
        "E": "-0.0001861",
        "Tmin": "12.86",
        "Tmax": "167.68"
    },
    "LiquidHeatCapacityCp": {
        "eqno": "16",
        "A": "117360",
        "B": "-28.344",
        "C": "9.2143",
        "D": "0.0086854",
        "E": "-0.00000596",
        "Tmin": "174.28",
        "Tmax": "322.88"
    },
    "IdealGasHeatCapacityCp": {
        "eqno": "16",
        "A": "73375",
        "B": "-521.55",
        "C": "12.775",
        "D": "0.00038975",
        "E": "-1.1854E-07",
        "Tmin": "200",
        "Tmax": "1500"
    },
    "SecondVirialCoefficient": {
        "eqno": "104",
        "A": "0.19877",
        "B": "-197.24",
        "C": "-29.493",
        "D": "-899.68",
        "E": "-190.18",
        "Tmin": "244.37",
        "Tmax": "1954.92"
    },
    "LiquidViscosity": {
        "eqno": "101",
        "A": "22.562",
        "B": "-455.85",
        "C": "-5.0804",
        "D": "-5.7101E-07",
        "E": "2",
        "Tmin": "220",
        "Tmax": "390.96"
    },
    "VaporViscosity": {
        "eqno": "102",
        "A": "1.9362E-07",
        "B": "0.68259",
        "C": "102.35",
        "D": "-10.082",
        "Tmin": "174.28",
        "Tmax": "1000"
    },
    "LiquidThermalConductivity": {
        "eqno": "16",
        "A": "-0.038291",
        "B": "4.8824",
        "C": "-1.6311",
        "D": "-0.00047294",
        "E": "-0.0000023877",
        "Tmin": "174.28",
        "Tmax": "322.89"
    },
    "VaporThermalConductivity": {
        "eqno": "102",
        "A": "0.00018521",
        "B": "0.9549",
        "C": "83.825",
        "D": "174320",
        "Tmin": "174.28",
        "Tmax": "1000"
    },
    "SurfaceTension": {
        "eqno": "16",
        "A": "-0.012433",
        "B": "29.735",
        "C": "-3.2504",
        "D": "0.00031415",
        "E": "-0.0000057433",
        "Tmin": "174.28",
        "Tmax": "472.44"
    },
    "RPPHeatCapacityCp": {
        "eqno": "100",
        "A": "25002",
        "B": "324.75",
        "C": "0.40334",
        "D": "-0.00068536",
        "E": "2.7995E-07",
        "Tmin": "200",
        "Tmax": "1000"
    },
    "AntoineVaporPressure": {
        "eqno": "10",
        "A": "20.782",
        "B": "2690.4",
        "C": "-32.326",
        "Tmin": "298.15",
        "Tmax": "439.31"
    },
    "LiquidViscosityRPS": {
        "eqno": "13",
        "A": "-3.3309",
        "B": "-0.018831",
        "C": "0.00001104",
        "Tmin": "220",
        "Tmax": "322.88"
    },
    "COSTALDVolume": "0.366863",
    "DiameterLJ": "6.326557E-10",
    "EnergyLJ": "294.0381",
    "FullerVolume": "127.74",
    "MatthiasCopemanC2": "0.0743",
    "Parachor": "0.0475",
    "SpecificGravity": "0.65323",
    "Charge": "0",
    "CostaldAcentricFactor": "0.23385",
    "WilsonVolume": "0.133712",
    "UniquacR": "4.4983",
    "UniquacQ": "3.932",
    "ApiSrkS2": "-0.006195",
    "MatthiasCopemanC3": "-0.31834",
    "ChaoSeaderAcentricFactor": "0.23385",
    "ChaoSeaderSolubilityParameter": "13771.5",
    "ChaoSeaderLiquidVolume": "0.133712",
    "UnifacVLE": {
        "group": "1"
    },
    "UnifacLLE": {
        "group": "2"
    },
    "Asog": {
        "group": "1"
    },
    "GCmethod": {
        "group": "1"
    },
    "Umr": {
        "group": "1"
    },
    "ModifiedUnifac": {
        "group": "1"
    },
    "CAS": "75-83-2",
    "Smiles": "CC(C)(C)CC"
}