{
    "LibraryIndex": "96",
    "CompoundID": "2,2-dimethylheptane",
    "StructureFormula": "CH3C(CH3)2(CH2)4CH3",
    "Family": "4",
    "CriticalTemperature": "577.8",
    "CriticalPressure": "2350000",
    "CriticalVolume": "0.525",
    "CriticalCompressibility": "0.257",
    "NormalBoilingPointTemperature": "405.97",
    "NormalMeltingPointTemperature": "160.15",
    "TriplePointTemperature": "160.15",
    "TriplePointPressure": "0.000152983",
    "MolecularWeight": "128.2551",
    "LiquidVolumeAtNormalBoilingPoint": "0.18151",
    "AcentricityFactor": "0.383",
    "RadiusOfGyration": "4.845E-10",
    "SolubilityParameter": "14720",
    "DipoleMoment": "0",
    "VanDerWaalsVolume": "0.09893",
    "VanDerWaalsArea": "1.388E+09",
    "HeatOfFormation": "-2.461E+08",
    "GibbsEnergyOfFormation": "1.79E+07",
    "AbsEntropy": "471800",
    "HeatOfFusionAtMeltingPoint": "8900000",
    "HeatOfCombustion": "-5.672E+09",
    "SolidDensity": {
        "eqno": "2",
        "A": "7.9753",
        "B": "-0.0055395",
        "C": "0",
        "D": "0",
        "E": "0",
        "Tmin": "64.06",
        "Tmax": "160.15"
    },
    "LiquidDensity": {
        "eqno": "105",
        "A": "0.19929",
        "B": "0.16944",
        "C": "577.8",
        "D": "0.19098",
        "Tmin": "160.15",
        "Tmax": "576.7"
    },
    "VaporPressure": {
        "eqno": "101",
        "A": "173.1768",
        "B": "-10891.65",
        "C": "-23.04354",
        "D": "0.0000217483",
        "E": "2",
        "Tmin": "160.15",
        "Tmax": "576.7"
    },
    "HeatOfVaporization": {
        "eqno": "106",
        "A": "5.677584E+07",
        "B": "0.420266",
        "C": "0.0606766",
        "D": "-0.058971",
        "E": "-0.0565229",
        "Tmin": "160.15",
        "Tmax": "576.7"
    },
    "SolidHeatCapacityCp": {
        "eqno": "1",
        "A": "249210",
        "Tmin": "0",
        "Tmax": "577.8"
    },
    "LiquidHeatCapacityCp": {
        "eqno": "16",
        "A": "188490",
        "B": "-126.2",
        "C": "10.161",
        "D": "0.0065361",
        "E": "-0.0000033154",
        "Tmin": "160.15",
        "Tmax": "405.84"
    },
    "IdealGasHeatCapacityCp": {
        "eqno": "16",
        "A": "119340",
        "B": "-582.53",
        "C": "13.386",
        "D": "0.000067675",
        "E": "-2.1229E-08",
        "Tmin": "150",
        "Tmax": "1500"
    },
    "SecondVirialCoefficient": {
        "eqno": "104",
        "A": "0.29926",
        "B": "-360.95",
        "C": "-70.246",
        "D": "-13793",
        "E": "20867",
        "Tmin": "288.35",
        "Tmax": "1500"
    },
    "LiquidViscosity": {
        "eqno": "101",
        "A": "-11.654",
        "B": "1250.4",
        "C": "0.03445",
        "D": "-6.0618E-08",
        "E": "2",
        "Tmin": "160.15",
        "Tmax": "462.4"
    },
    "VaporViscosity": {
        "eqno": "102",
        "A": "8.0205E-07",
        "B": "0.4765",
        "C": "340.6",
        "D": "-3260.3",
        "Tmin": "160.15",
        "Tmax": "1000"
    },
    "LiquidThermalConductivity": {
        "eqno": "16",
        "A": "-0.04961",
        "B": "4.5364",
        "C": "-1.657",
        "D": "-0.00038774",
        "E": "-0.0000014465",
        "Tmin": "160.15",
        "Tmax": "405.84"
    },
    "VaporThermalConductivity": {
        "eqno": "102",
        "A": "0.000023582",
        "B": "1.1966",
        "C": "-148.34",
        "D": "144910",
        "Tmin": "160.15",
        "Tmax": "1000"
    },
    "SurfaceTension": {
        "eqno": "16",
        "A": "-0.008025",
        "B": "40.938",
        "C": "-3.4014",
        "D": "0.00073554",
        "E": "-0.0000058206",
        "Tmin": "160.15",
        "Tmax": "576.7"
    },
    "RPPHeatCapacityCp": {
        "eqno": "4",
        "A": "5399.1",
        "B": "817.15",
        "C": "-0.38647",
        "D": "0.000065459",
        "Tmin": "150",
        "Tmax": "1500"
    },
    "RelativeStaticPermittivity": {
        "eqno": "120",
        "A": "-1.404923",
        "B": "-950",
        "C": "-5.7",
        "Tmin": "274.15",
        "Tmax": "444.15"
    },
    "AntoineVaporPressure": {
        "eqno": "10",
        "A": "20.532",
        "B": "3019.1",
        "C": "-70.648",
        "Tmin": "346.85",
        "Tmax": "510.93"
    },
    "LiquidViscosityRPS": {
        "eqno": "12",
        "A": "-1.5711",
        "B": "-0.018073",
        "Tmin": "160.15",
        "Tmax": "405.84"
    },
    "COSTALDVolume": "0.550163",
    "DiameterLJ": "7.686199E-10",
    "EnergyLJ": "283.4327",
    "RacketParameter": "0.257",
    "FullerVolume": "189.3",
    "Parachor": "0.0677873",
    "SpecificGravity": "0.715257",
    "Charge": "0",
    "CostaldAcentricFactor": "0.383",
    "WilsonVolume": "0.18151",
    "UniquacR": "6.5215",
    "UniquacQ": "5.552",
    "ChaoSeaderAcentricFactor": "0.383",
    "ChaoSeaderSolubilityParameter": "14720",
    "ChaoSeaderLiquidVolume": "0.18151",
    "UnifacVLE": {
        "group": "1"
    },
    "UnifacLLE": {
        "group": "1"
    },
    "Asog": {
        "group": "1"
    },
    "GCmethod": {
        "group": "1"
    },
    "Umr": {
        "group": "1"
    },
    "ModifiedUnifac": {
        "group": "1"
    },
    "CAS": "1071-26-7",
    "Smiles": "CC(C)(C)CCCCC"
}