{
    "LibraryIndex": "21",
    "CompoundID": "2,2-dimethylpentane",
    "StructureFormula": "CH3C(CH3)2CH2CH2CH3",
    "Family": "4",
    "CriticalTemperature": "520.4",
    "CriticalPressure": "2770000",
    "CriticalVolume": "0.4158",
    "CriticalCompressibility": "0.266",
    "NormalBoilingPointTemperature": "352.32",
    "NormalMeltingPointTemperature": "149.34",
    "TriplePointTemperature": "149.34",
    "TriplePointPressure": "0.00317517",
    "MolecularWeight": "100.202",
    "LiquidVolumeAtNormalBoilingPoint": "0.14967",
    "AcentricityFactor": "0.287",
    "RadiusOfGyration": "3.922E-10",
    "SolubilityParameter": "14260",
    "DipoleMoment": "0",
    "VanDerWaalsVolume": "0.07847",
    "VanDerWaalsArea": "1.118E+09",
    "HeatOfFormation": "-2.06146E+08",
    "GibbsEnergyOfFormation": "550000",
    "AbsEntropy": "392580",
    "HeatOfFusionAtMeltingPoint": "5824000",
    "MatthiasCopemanC1": "0.96525",
    "HeatOfCombustion": "-4.45048E+09",
    "SolidDensity": {
        "eqno": "2",
        "A": "9.9776",
        "B": "-0.0074425",
        "C": "0",
        "D": "0",
        "E": "0",
        "Tmin": "59.74",
        "Tmax": "149.34"
    },
    "LiquidDensity": {
        "eqno": "105",
        "A": "0.5639",
        "B": "0.25328",
        "C": "520.51",
        "D": "0.25578",
        "Tmin": "149.34",
        "Tmax": "520.5"
    },
    "VaporPressure": {
        "eqno": "101",
        "A": "85.15112",
        "B": "-6377.959",
        "C": "-9.646055",
        "D": "8.426861E-06",
        "E": "2",
        "Tmin": "149.34",
        "Tmax": "520.5"
    },
    "HeatOfVaporization": {
        "eqno": "106",
        "A": "5.34663E+07",
        "B": "0.794603",
        "C": "-0.00994342",
        "D": "-0.969824",
        "E": "0.623819",
        "Tmin": "149.34",
        "Tmax": "503"
    },
    "SolidHeatCapacityCp": {
        "eqno": "100",
        "A": "-151610",
        "B": "8029.6",
        "C": "-109.32",
        "D": "0.68084",
        "E": "-0.0014889",
        "Tmin": "69.95",
        "Tmax": "149.43"
    },
    "LiquidHeatCapacityCp": {
        "eqno": "16",
        "A": "129920",
        "B": "-35.818",
        "C": "9.4637",
        "D": "0.0091865",
        "E": "-0.0000074351",
        "Tmin": "149.43",
        "Tmax": "310"
    },
    "IdealGasHeatCapacityCp": {
        "eqno": "16",
        "A": "80553",
        "B": "-507.91",
        "C": "12.99",
        "D": "0.00027095",
        "E": "-7.6982E-08",
        "Tmin": "200",
        "Tmax": "1500"
    },
    "SecondVirialCoefficient": {
        "eqno": "104",
        "A": "0.25329",
        "B": "-290.61",
        "C": "-31.592",
        "D": "-7598.3",
        "E": "14076",
        "Tmin": "260.25",
        "Tmax": "1898.25"
    },
    "LiquidViscosity": {
        "eqno": "101",
        "A": "-24.348",
        "B": "1370.4",
        "C": "2.2619",
        "D": "-0.0000092505",
        "E": "2",
        "Tmin": "149.34",
        "Tmax": "352.34"
    },
    "VaporViscosity": {
        "eqno": "102",
        "A": "3.1425E-07",
        "B": "0.61072",
        "C": "160.83",
        "D": "5436.3",
        "Tmin": "352.34",
        "Tmax": "1000"
    },
    "LiquidThermalConductivity": {
        "eqno": "16",
        "A": "-0.052706",
        "B": "3.783",
        "C": "-1.5822",
        "D": "-0.00046167",
        "E": "-0.0000017248",
        "Tmin": "149.34",
        "Tmax": "352.34"
    },
    "VaporThermalConductivity": {
        "eqno": "102",
        "A": "0.000010009",
        "B": "1.3247",
        "C": "-199.43",
        "D": "115550",
        "Tmin": "149.34",
        "Tmax": "1000"
    },
    "SurfaceTension": {
        "eqno": "16",
        "A": "-0.010753",
        "B": "30.074",
        "C": "-3.2695",
        "D": "0.00035683",
        "E": "-0.0000056635",
        "Tmin": "149.34",
        "Tmax": "500.97"
    },
    "RPPHeatCapacityCp": {
        "eqno": "100",
        "A": "10934",
        "B": "502.71",
        "C": "0.23389",
        "D": "-0.00063356",
        "E": "2.8552E-07",
        "Tmin": "200",
        "Tmax": "1000"
    },
    "RelativeStaticPermittivity": {
        "eqno": "120",
        "A": "-1.404923",
        "B": "-950",
        "C": "-5.7",
        "Tmin": "274.15",
        "Tmax": "444.15"
    },
    "AntoineVaporPressure": {
        "eqno": "10",
        "A": "20.759",
        "B": "2846.1",
        "C": "-44.131",
        "Tmin": "313.48",
        "Tmax": "463.15"
    },
    "LiquidViscosityRPS": {
        "eqno": "12",
        "A": "-1.8111",
        "B": "-0.019605",
        "Tmin": "149.34",
        "Tmax": "352.34"
    },
    "COSTALDVolume": "0.425834",
    "DiameterLJ": "6.823625E-10",
    "EnergyLJ": "288.9511",
    "RacketParameter": "0.266",
    "FullerVolume": "148.26",
    "MatthiasCopemanC2": "-0.424",
    "Parachor": "0.0539877",
    "SpecificGravity": "0.682101",
    "Charge": "0",
    "CostaldAcentricFactor": "0.287",
    "WilsonVolume": "0.14967",
    "UniquacR": "5.1727",
    "UniquacQ": "4.472",
    "ApiSrkS2": "-0.003786",
    "MatthiasCopemanC3": "0.86847",
    "ChaoSeaderAcentricFactor": "0.287",
    "ChaoSeaderSolubilityParameter": "14260",
    "ChaoSeaderLiquidVolume": "0.14967",
    "UnifacVLE": {
        "group": "1"
    },
    "UnifacLLE": {
        "group": "1"
    },
    "Asog": {
        "group": "1"
    },
    "GCmethod": {
        "group": "1"
    },
    "Umr": {
        "group": "1"
    },
    "ModifiedUnifac": {
        "group": "1"
    },
    "CAS": "590-35-2",
    "Smiles": "CC(C)(C)CCC"
}