{
    "LibraryIndex": "1113",
    "CompoundID": "2,2-dimethyl-1-propanol",
    "StructureFormula": "(CH3)3CCH2OH",
    "Family": "46",
    "CriticalTemperature": "552.7",
    "CriticalPressure": "4078000",
    "CriticalVolume": "0.327",
    "CriticalCompressibility": "0.29",
    "NormalBoilingPointTemperature": "386.25",
    "NormalMeltingPointTemperature": "328.15",
    "TriplePointTemperature": "328.15",
    "TriplePointPressure": "8050",
    "MolecularWeight": "88.14818",
    "LiquidVolumeAtNormalBoilingPoint": "0.1255",
    "AcentricityFactor": "0.595013",
    "RadiusOfGyration": "3.388E-10",
    "SolubilityParameter": "19040",
    "DipoleMoment": "5.47E-30",
    "VanDerWaalsVolume": "0.06261",
    "VanDerWaalsArea": "9.17E+08",
    "HeatOfFormation": "-3.021E+08",
    "GibbsEnergyOfFormation": "-1.4E+08",
    "AbsEntropy": "370000",
    "HeatOfFusionAtMeltingPoint": "3500000",
    "MatthiasCopemanC1": "1.1247",
    "HeatOfCombustion": "-3.061E+09",
    "SolidDensity": {
        "eqno": "2",
        "A": "9.9642",
        "B": "-0.0024076",
        "C": "0",
        "D": "0",
        "E": "0",
        "Tmin": "242.1",
        "Tmax": "328.15"
    },
    "LiquidDensity": {
        "eqno": "105",
        "A": "0.88741",
        "B": "0.29",
        "C": "552.7",
        "D": "0.28571",
        "Tmin": "328.15",
        "Tmax": "552.7"
    },
    "VaporPressure": {
        "eqno": "101",
        "A": "192.4683",
        "B": "-12413.62",
        "C": "-25.59931",
        "D": "0.0000246643",
        "E": "2",
        "Tmin": "298.15",
        "Tmax": "552.7"
    },
    "HeatOfVaporization": {
        "eqno": "106",
        "A": "4.5224E+07",
        "B": "-1.2435",
        "C": "2.138",
        "D": "0.13988",
        "E": "-0.73989",
        "Tmin": "274.2",
        "Tmax": "552.7"
    },
    "SolidHeatCapacityCp": {
        "eqno": "100",
        "A": "2.6373E+07",
        "B": "-380330",
        "C": "2052.3",
        "D": "-4.8887",
        "E": "0.004351",
        "Tmin": "242.1",
        "Tmax": "328.15"
    },
    "LiquidHeatCapacityCp": {
        "eqno": "16",
        "A": "124850",
        "B": "368.96",
        "C": "4.9094",
        "D": "0.027472",
        "E": "-0.00002893",
        "Tmin": "294.4",
        "Tmax": "386.25"
    },
    "IdealGasHeatCapacityCp": {
        "eqno": "16",
        "A": "72294.67",
        "B": "-550.0374",
        "C": "12.86817",
        "D": "0.000039202",
        "E": "-1.255351E-08",
        "Tmin": "100",
        "Tmax": "1500"
    },
    "SecondVirialCoefficient": {
        "eqno": "104",
        "A": "0.22295",
        "B": "-222.2",
        "C": "-30.28",
        "D": "12264",
        "E": "-130500",
        "Tmin": "276.35",
        "Tmax": "1500"
    },
    "LiquidViscosity": {
        "eqno": "101",
        "A": "-12.693",
        "B": "3446.8",
        "C": "-0.71456",
        "D": "0.0000011322",
        "E": "2",
        "Tmin": "328.15",
        "Tmax": "386.25"
    },
    "VaporViscosity": {
        "eqno": "102",
        "A": "0.000021696",
        "B": "0.15612",
        "C": "1926.2",
        "D": "5137.4",
        "Tmin": "328.15",
        "Tmax": "1000"
    },
    "LiquidThermalConductivity": {
        "eqno": "16",
        "A": "-0.11602",
        "B": "10.416",
        "C": "-1.227",
        "D": "-0.00033355",
        "E": "-0.00000113",
        "Tmin": "165",
        "Tmax": "435"
    },
    "VaporThermalConductivity": {
        "eqno": "102",
        "A": "1.2842E-07",
        "B": "1.9773",
        "C": "-61.933",
        "D": "2946",
        "Tmin": "274",
        "Tmax": "1000"
    },
    "SurfaceTension": {
        "eqno": "16",
        "A": "-0.0041579",
        "B": "905.49",
        "C": "-11.129",
        "D": "0.02249",
        "E": "-0.000027579",
        "Tmin": "327.15",
        "Tmax": "552.7"
    },
    "RPPHeatCapacityCp": {
        "eqno": "4",
        "A": "56025",
        "B": "298.25",
        "C": "-0.0082083",
        "D": "-0.000042003",
        "Tmin": "100",
        "Tmax": "1500"
    },
    "RelativeStaticPermittivity": {
        "eqno": "120",
        "A": "-5.2",
        "B": "-4175",
        "C": "-25.05",
        "Tmin": "280",
        "Tmax": "450"
    },
    "AntoineVaporPressure": {
        "eqno": "10",
        "A": "21.192",
        "B": "2694.4",
        "C": "-107.63",
        "Tmin": "333.15",
        "Tmax": "490.57"
    },
    "LiquidViscosityRPS": {
        "eqno": "12",
        "A": "3.1165",
        "B": "-0.028526",
        "Tmin": "328.15",
        "Tmax": "386.25"
    },
    "COSTALDVolume": "0.335173",
    "DiameterLJ": "5.678278E-10",
    "EnergyLJ": "418.8277",
    "RacketParameter": "0.29",
    "FullerVolume": "113.33",
    "MatthiasCopemanC2": "2.4275",
    "Parachor": "0.0437982",
    "SpecificGravity": "0.735646",
    "Charge": "0",
    "CostaldAcentricFactor": "0.595013",
    "WilsonVolume": "0.1255",
    "UniquacR": "4.5972",
    "UniquacQ": "4.284",
    "MatthiasCopemanC3": "-4.9571",
    "ChaoSeaderAcentricFactor": "0.595013",
    "ChaoSeaderSolubilityParameter": "19040",
    "ChaoSeaderLiquidVolume": "0.1255",
    "UnifacVLE": {
        "group": "1"
    },
    "UnifacLLE": {
        "group": "1"
    },
    "Asog": {
        "group": "1"
    },
    "GCmethod": {
        "group": "1"
    },
    "Umr": {
        "group": "1"
    },
    "ModifiedUnifac": {
        "group": "1"
    },
    "CAS": "75-84-3",
    "Smiles": "OCC(C)(C)C"
}