{
    "LibraryIndex": "42",
    "CompoundID": "2,3,3-trimethylpentane",
    "StructureFormula": "CH3CH(CH3)C(CH3)2CH2CH3",
    "Family": "4",
    "CriticalTemperature": "573.5",
    "CriticalPressure": "2820000",
    "CriticalVolume": "0.4551",
    "CriticalCompressibility": "0.269",
    "NormalBoilingPointTemperature": "387.92",
    "NormalMeltingPointTemperature": "172.22",
    "TriplePointTemperature": "172.22",
    "TriplePointPressure": "0.0168197",
    "MolecularWeight": "114.2285",
    "LiquidVolumeAtNormalBoilingPoint": "0.15815",
    "AcentricityFactor": "0.291",
    "RadiusOfGyration": "3.96E-10",
    "SolubilityParameter": "14920",
    "DipoleMoment": "0",
    "VanDerWaalsVolume": "0.08869",
    "VanDerWaalsArea": "1.252E+09",
    "HeatOfFormation": "-2.1845E+08",
    "GibbsEnergyOfFormation": "1.828E+07",
    "AbsEntropy": "427020",
    "HeatOfFusionAtMeltingPoint": "857720",
    "MatthiasCopemanC1": "0.91681",
    "HeatOfCombustion": "-5.06876E+09",
    "SolidDensity": {
        "eqno": "2",
        "A": "8.9997",
        "B": "-0.0058029",
        "Tmin": "68.89",
        "Tmax": "172.22"
    },
    "LiquidDensity": {
        "eqno": "105",
        "A": "0.56592",
        "B": "0.26622",
        "C": "573.5",
        "D": "0.26429",
        "Tmin": "172.22",
        "Tmax": "573.5"
    },
    "VaporPressure": {
        "eqno": "101",
        "A": "82.87517",
        "B": "-6894.749",
        "C": "-9.15013",
        "D": "6.430758E-06",
        "E": "2",
        "Tmin": "172.22",
        "Tmax": "573.5"
    },
    "HeatOfVaporization": {
        "eqno": "106",
        "A": "5.838161E+07",
        "B": "1.059379",
        "C": "-1.234692",
        "D": "0.816701",
        "E": "-0.225175",
        "Tmin": "172.22",
        "Tmax": "573.5"
    },
    "SolidHeatCapacityCp": {
        "eqno": "1",
        "A": "223200",
        "Tmin": "280",
        "Tmax": "0"
    },
    "LiquidHeatCapacityCp": {
        "eqno": "16",
        "A": "217000",
        "B": "82.075",
        "C": "1.8853",
        "D": "0.036678",
        "E": "-0.000031911",
        "Tmin": "280",
        "Tmax": "320"
    },
    "IdealGasHeatCapacityCp": {
        "eqno": "16",
        "A": "48585",
        "B": "-365.95",
        "C": "12.926",
        "D": "0.00051631",
        "E": "-1.5846E-07",
        "Tmin": "200",
        "Tmax": "1500"
    },
    "SecondVirialCoefficient": {
        "eqno": "104",
        "A": "0.26872",
        "B": "-341.85",
        "C": "-55.056",
        "D": "-7881.5",
        "E": "10783",
        "Tmin": "286.75",
        "Tmax": "2000"
    },
    "LiquidViscosity": {
        "eqno": "101",
        "A": "-10.941",
        "B": "1191.2",
        "C": "-0.045562",
        "D": "-0.0000023087",
        "E": "2",
        "Tmin": "172.22",
        "Tmax": "489.51"
    },
    "VaporViscosity": {
        "eqno": "102",
        "A": "8.2493E-07",
        "B": "0.49302",
        "C": "371.93",
        "D": "-89.774",
        "Tmin": "387.91",
        "Tmax": "1000"
    },
    "LiquidThermalConductivity": {
        "eqno": "16",
        "A": "-0.040193",
        "B": "3.6823",
        "C": "-1.645",
        "D": "-0.00052834",
        "E": "-0.0000014091",
        "Tmin": "172.22",
        "Tmax": "387.91"
    },
    "VaporThermalConductivity": {
        "eqno": "102",
        "A": "0.000018829",
        "B": "1.2378",
        "C": "-181.1",
        "D": "146480",
        "Tmin": "172.22",
        "Tmax": "1000"
    },
    "SurfaceTension": {
        "eqno": "16",
        "A": "-0.01117",
        "B": "27.611",
        "C": "-3.1709",
        "D": "0.00013513",
        "E": "-0.0000044446",
        "Tmin": "172.22",
        "Tmax": "573.5"
    },
    "RPPHeatCapacityCp": {
        "eqno": "100",
        "A": "-47609",
        "B": "980.6",
        "C": "-0.74331",
        "D": "0.00033358",
        "E": "-6.7846E-08",
        "Tmin": "200",
        "Tmax": "1000"
    },
    "RelativeStaticPermittivity": {
        "eqno": "120",
        "A": "-2.197557",
        "B": "-1450",
        "C": "-8.7",
        "Tmin": "274.15",
        "Tmax": "444.15"
    },
    "AntoineVaporPressure": {
        "eqno": "10",
        "A": "20.868",
        "B": "3199.9",
        "C": "-45.369",
        "Tmin": "345.13",
        "Tmax": "513.19"
    },
    "LiquidViscosityRPS": {
        "eqno": "13",
        "A": "2.0041",
        "B": "-0.04624",
        "C": "0.000049116",
        "Tmin": "172.22",
        "Tmax": "452.22"
    },
    "COSTALDVolume": "0.46322",
    "DiameterLJ": "6.938163E-10",
    "EnergyLJ": "331.5544",
    "FullerVolume": "168.78",
    "MatthiasCopemanC2": "0",
    "Parachor": "0.0601",
    "SpecificGravity": "0.729041",
    "Charge": "0",
    "CostaldAcentricFactor": "0.28889",
    "WilsonVolume": "0.158155",
    "UniquacR": "5.85",
    "UniquacQ": "4.94",
    "ApiSrkS2": "-0.003849",
    "MatthiasCopemanC3": "0",
    "ChaoSeaderAcentricFactor": "0.2903",
    "ChaoSeaderSolubilityParameter": "14919.5",
    "ChaoSeaderLiquidVolume": "0.158155",
    "UnifacVLE": {
        "group": "1"
    },
    "UnifacLLE": {
        "group": "1"
    },
    "Asog": {
        "group": "1"
    },
    "GCmethod": {
        "group": "1"
    },
    "Umr": {
        "group": "1"
    },
    "ModifiedUnifac": {
        "group": "1"
    },
    "CAS": "560-21-4",
    "Smiles": "CC(C)C(C)(C)CC"
}