{
    "LibraryIndex": "54",
    "CompoundID": "2,3,3,4-tetramethylpentane",
    "StructureFormula": "(CH3)2CHC(CH3)2CH(CH3)2",
    "Family": "4",
    "CriticalTemperature": "607.1",
    "CriticalPressure": "2670000",
    "CriticalVolume": "0.493",
    "CriticalCompressibility": "0.261",
    "NormalBoilingPointTemperature": "414.71",
    "NormalMeltingPointTemperature": "171.05",
    "TriplePointTemperature": "171.03",
    "TriplePointPressure": "0.00089642",
    "MolecularWeight": "128.2551",
    "LiquidVolumeAtNormalBoilingPoint": "0.17076",
    "AcentricityFactor": "0.313",
    "RadiusOfGyration": "4.2E-10",
    "SolubilityParameter": "15110",
    "DipoleMoment": "0",
    "VanDerWaalsVolume": "0.09891",
    "VanDerWaalsArea": "1.386E+09",
    "HeatOfFormation": "-2.361E+08",
    "GibbsEnergyOfFormation": "3.8E+07",
    "AbsEntropy": "436900",
    "HeatOfFusionAtMeltingPoint": "9000000",
    "MatthiasCopemanC1": "0.95099",
    "HeatOfCombustion": "-5.6822E+09",
    "SolidDensity": {
        "eqno": "100",
        "A": "8.3777",
        "B": "-0.006123",
        "C": "0",
        "D": "0",
        "E": "0",
        "Tmin": "68.41",
        "Tmax": "171.03"
    },
    "LiquidDensity": {
        "eqno": "105",
        "A": "0.49299",
        "B": "0.25927",
        "C": "607.51",
        "D": "0.27003",
        "Tmin": "171.03",
        "Tmax": "607.5"
    },
    "VaporPressure": {
        "eqno": "101",
        "A": "79.047",
        "B": "-7201.2",
        "C": "-8.4677",
        "D": "0.0000051332",
        "E": "2",
        "Tmin": "171.03",
        "Tmax": "607.5"
    },
    "HeatOfVaporization": {
        "eqno": "106",
        "A": "5.5207E+07",
        "B": "0.63465",
        "C": "-0.82041",
        "D": "1.0175",
        "E": "-0.45604",
        "Tmin": "171.03",
        "Tmax": "584.53"
    },
    "SolidHeatCapacityCp": {
        "eqno": "1",
        "A": "249210",
        "Tmin": "0",
        "Tmax": "607.1"
    },
    "LiquidHeatCapacityCp": {
        "eqno": "16",
        "A": "61477",
        "B": "20.611",
        "C": "11.082",
        "D": "0.0041652",
        "E": "-0.0000014763",
        "Tmin": "171.03",
        "Tmax": "414.7"
    },
    "IdealGasHeatCapacityCp": {
        "eqno": "16",
        "A": "50811",
        "B": "-338.13",
        "C": "12.991",
        "D": "0.00056259",
        "E": "-1.7284E-07",
        "Tmin": "200",
        "Tmax": "1500"
    },
    "SecondVirialCoefficient": {
        "eqno": "104",
        "A": "0.30059",
        "B": "-410.94",
        "C": "-73.01",
        "D": "-15607",
        "E": "25044",
        "Tmin": "303.75",
        "Tmax": "1500"
    },
    "LiquidViscosity": {
        "eqno": "101",
        "A": "-7.4098",
        "B": "1217",
        "C": "-0.67198",
        "D": "-2.7904E-07",
        "E": "2",
        "Tmin": "171.03",
        "Tmax": "546.3"
    },
    "VaporViscosity": {
        "eqno": "102",
        "A": "3.7299E-07",
        "B": "0.59636",
        "C": "289.93",
        "D": "-9056.4",
        "Tmin": "171.03",
        "Tmax": "1000"
    },
    "LiquidThermalConductivity": {
        "eqno": "16",
        "A": "-0.058699",
        "B": "3.5637",
        "C": "-1.5648",
        "D": "-0.000479",
        "E": "-0.0000010469",
        "Tmin": "171.03",
        "Tmax": "414.7"
    },
    "VaporThermalConductivity": {
        "eqno": "102",
        "A": "0.000035577",
        "B": "1.1602",
        "C": "-50.424",
        "D": "142790",
        "Tmin": "171.03",
        "Tmax": "1000"
    },
    "SurfaceTension": {
        "eqno": "16",
        "A": "-0.015328",
        "B": "14.362",
        "C": "-2.9182",
        "D": "-0.00052501",
        "E": "-0.0000026764",
        "Tmin": "171.03",
        "Tmax": "584.53"
    },
    "RPPHeatCapacityCp": {
        "eqno": "100",
        "A": "-76402",
        "B": "1346.3",
        "C": "-1.4905",
        "D": "0.001055",
        "E": "-3.2169E-07",
        "Tmin": "200",
        "Tmax": "1000"
    },
    "RelativeStaticPermittivity": {
        "eqno": "120",
        "A": "-2.197557",
        "B": "-1450",
        "C": "-8.7",
        "Tmin": "274.15",
        "Tmax": "444.15"
    },
    "AntoineVaporPressure": {
        "eqno": "10",
        "A": "20.915",
        "B": "3420.9",
        "C": "-50.35",
        "Tmin": "365",
        "Tmax": "538.58"
    },
    "LiquidViscosityRPS": {
        "eqno": "12",
        "A": "-2.0446",
        "B": "-0.015849",
        "Tmin": "171.03",
        "Tmax": "486"
    },
    "COSTALDVolume": "0.550036",
    "DiameterLJ": "7.38854E-10",
    "EnergyLJ": "314.8323",
    "RacketParameter": "0.261",
    "FullerVolume": "189.3",
    "MatthiasCopemanC2": "0",
    "Parachor": "0.06644",
    "SpecificGravity": "0.758871",
    "Charge": "0",
    "CostaldAcentricFactor": "0.313",
    "WilsonVolume": "0.17076",
    "UniquacR": "6.5199",
    "UniquacQ": "5.544",
    "ApiSrkS2": "-0.005733",
    "MatthiasCopemanC3": "0",
    "ChaoSeaderAcentricFactor": "0.313",
    "ChaoSeaderSolubilityParameter": "15110",
    "ChaoSeaderLiquidVolume": "0.17076",
    "UnifacVLE": {
        "group": "1"
    },
    "UnifacLLE": {
        "group": "1"
    },
    "Asog": {
        "group": "1"
    },
    "GCmethod": {
        "group": "1"
    },
    "Umr": {
        "group": "1"
    },
    "ModifiedUnifac": {
        "group": "1"
    },
    "CAS": "16747-38-9",
    "Smiles": "CC(C)C(C)(C)C(C)C"
}