{
    "LibraryIndex": "15",
    "CompoundID": "2,3-dimethylbutane",
    "StructureFormula": "(CH3)2CHCH(CH3)2",
    "Family": "3",
    "CriticalTemperature": "499.9",
    "CriticalPressure": "3130000",
    "CriticalVolume": "0.3576",
    "CriticalCompressibility": "0.269",
    "NormalBoilingPointTemperature": "331.12",
    "NormalMeltingPointTemperature": "145.19",
    "TriplePointTemperature": "145.19",
    "TriplePointPressure": "0.0152127",
    "MolecularWeight": "86.17536",
    "LiquidVolumeAtNormalBoilingPoint": "0.13117",
    "AcentricityFactor": "0.248",
    "RadiusOfGyration": "3.636E-10",
    "SolubilityParameter": "14300",
    "DipoleMoment": "0",
    "VanDerWaalsVolume": "0.06824",
    "VanDerWaalsArea": "9.62E+08",
    "HeatOfFormation": "-1.768E+08",
    "GibbsEnergyOfFormation": "-3125000",
    "AbsEntropy": "365920",
    "HeatOfFusionAtMeltingPoint": "799100",
    "MatthiasCopemanC1": "0.85804",
    "HeatOfCombustion": "-3.84761E+09",
    "SolidDensity": {
        "eqno": "2",
        "A": "11.428",
        "B": "-0.008415",
        "Tmin": "58.08",
        "Tmax": "145.19"
    },
    "LiquidDensity": {
        "eqno": "105",
        "A": "0.67999",
        "B": "0.25932",
        "C": "500.01",
        "D": "0.25836",
        "Tmin": "145.19",
        "Tmax": "500"
    },
    "VaporPressure": {
        "eqno": "101",
        "A": "76.80058",
        "B": "-5679.218",
        "C": "-8.443302",
        "D": "7.93783E-06",
        "E": "2",
        "Tmin": "145.19",
        "Tmax": "500"
    },
    "HeatOfVaporization": {
        "eqno": "106",
        "A": "4.7443E+07",
        "B": "0.91932",
        "C": "-0.91329",
        "D": "0.50392",
        "E": "-0.089442",
        "Tmin": "145.19",
        "Tmax": "481.33"
    },
    "SolidHeatCapacityCp": {
        "eqno": "100",
        "A": "-21392",
        "B": "2002.6",
        "C": "-18.844",
        "D": "0.11065",
        "E": "-0.00021726",
        "Tmin": "17.2",
        "Tmax": "136.07"
    },
    "LiquidHeatCapacityCp": {
        "eqno": "16",
        "A": "126350",
        "B": "-53.429",
        "C": "8.8794",
        "D": "0.010279",
        "E": "-0.0000080841",
        "Tmin": "145.19",
        "Tmax": "331.13"
    },
    "IdealGasHeatCapacityCp": {
        "eqno": "16",
        "A": "46722",
        "B": "-391.59",
        "C": "12.599",
        "D": "0.00056088",
        "E": "-1.7583E-07",
        "Tmin": "200",
        "Tmax": "1500"
    },
    "SecondVirialCoefficient": {
        "eqno": "104",
        "A": "0.20289",
        "B": "-208.43",
        "C": "-28.236",
        "D": "-12822",
        "E": "38509",
        "Tmin": "295.95",
        "Tmax": "1999.72"
    },
    "LiquidViscosity": {
        "eqno": "101",
        "A": "6.9204",
        "B": "231.1",
        "C": "-2.7393",
        "D": "-1.3079E-07",
        "E": "2",
        "Tmin": "220",
        "Tmax": "331.13"
    },
    "VaporViscosity": {
        "eqno": "102",
        "A": "6.8449E-07",
        "B": "0.52371",
        "C": "291.92",
        "D": "-3199.1",
        "Tmin": "145.19",
        "Tmax": "1000"
    },
    "LiquidThermalConductivity": {
        "eqno": "16",
        "A": "-0.05308",
        "B": "-5.5491",
        "C": "-1.4118",
        "D": "-0.0011735",
        "E": "-7.4229E-07",
        "Tmin": "140",
        "Tmax": "331.15"
    },
    "VaporThermalConductivity": {
        "eqno": "102",
        "A": "0.000032078",
        "B": "1.1749",
        "C": "-107.52",
        "D": "129270",
        "Tmin": "145.19",
        "Tmax": "1000"
    },
    "SurfaceTension": {
        "eqno": "16",
        "A": "-0.013057",
        "B": "15.542",
        "C": "-3.0183",
        "D": "-0.0004395",
        "E": "-0.0000046347",
        "Tmin": "145.19",
        "Tmax": "481.33"
    },
    "RPPHeatCapacityCp": {
        "eqno": "100",
        "A": "-18408",
        "B": "618.2",
        "C": "-0.30739",
        "D": "0.000022699",
        "E": "2.5609E-08",
        "Tmin": "200",
        "Tmax": "1000"
    },
    "AntoineVaporPressure": {
        "eqno": "10",
        "A": "20.905",
        "B": "2797",
        "C": "-32.946",
        "Tmin": "300.4",
        "Tmax": "443.98"
    },
    "LiquidViscosityRPS": {
        "eqno": "13",
        "A": "-1.7621",
        "B": "-0.029455",
        "C": "0.000029461",
        "Tmin": "220",
        "Tmax": "331.13"
    },
    "COSTALDVolume": "0.361",
    "DiameterLJ": "6.40238E-10",
    "EnergyLJ": "289.0044",
    "RacketParameter": "0.2694",
    "FullerVolume": "127.74",
    "MatthiasCopemanC2": "-0.02497",
    "Parachor": "0.0473",
    "SpecificGravity": "0.665168",
    "Charge": "0",
    "CostaldAcentricFactor": "0.2477",
    "WilsonVolume": "0.13105",
    "UniquacR": "4.4982",
    "UniquacQ": "3.848",
    "ApiSrkS2": "-0.004579",
    "MatthiasCopemanC3": "-0.01856",
    "ChaoSeaderAcentricFactor": "0.24754",
    "ChaoSeaderSolubilityParameter": "14352.8",
    "ChaoSeaderLiquidVolume": "0.13105",
    "UnifacVLE": {
        "group": "2"
    },
    "UnifacLLE": {
        "group": "2"
    },
    "Asog": {
        "group": "2"
    },
    "GCmethod": {
        "group": "2"
    },
    "Umr": {
        "group": "2"
    },
    "ModifiedUnifac": {
        "group": "2"
    },
    "CAS": "79-29-8",
    "Smiles": "CC(C)C(C)C"
}