{
    "LibraryIndex": "49",
    "CompoundID": "2,4,4-trimethylhexane",
    "StructureFormula": "CH3CH2C(CH3)2CH2CH(CH3)2",
    "Family": "4",
    "CriticalTemperature": "583",
    "CriticalPressure": "2500000",
    "CriticalVolume": "0.509",
    "CriticalCompressibility": "0.26",
    "NormalBoilingPointTemperature": "403.81",
    "NormalMeltingPointTemperature": "159.78",
    "TriplePointTemperature": "159.78",
    "TriplePointPressure": "0.000306827",
    "MolecularWeight": "128.2551",
    "LiquidVolumeAtNormalBoilingPoint": "0.178125",
    "AcentricityFactor": "0.352203",
    "RadiusOfGyration": "4.432E-10",
    "SolubilityParameter": "14590",
    "DipoleMoment": "0",
    "VanDerWaalsVolume": "0.09892",
    "VanDerWaalsArea": "1.387E+09",
    "HeatOfFormation": "-2.403E+08",
    "GibbsEnergyOfFormation": "2.5E+07",
    "AbsEntropy": "468400",
    "HeatOfFusionAtMeltingPoint": "1.13E+07",
    "HeatOfCombustion": "-5.68E+09",
    "SolidDensity": {
        "eqno": "100",
        "A": "8.1808",
        "B": "-0.0064001",
        "C": "0",
        "D": "0",
        "E": "0",
        "Tmin": "63.91",
        "Tmax": "159.78"
    },
    "LiquidDensity": {
        "eqno": "105",
        "A": "0.098546",
        "B": "0.11862",
        "C": "583",
        "D": "0.15161",
        "Tmin": "159.78",
        "Tmax": "581"
    },
    "VaporPressure": {
        "eqno": "101",
        "A": "143.1127",
        "B": "-9541.532",
        "C": "-18.4559",
        "D": "0.0000171318",
        "E": "2",
        "Tmin": "159.78",
        "Tmax": "581"
    },
    "HeatOfVaporization": {
        "eqno": "106",
        "A": "5.5551E+07",
        "B": "0.63316",
        "C": "-0.60532",
        "D": "0.59593",
        "E": "-0.24062",
        "Tmin": "159.78",
        "Tmax": "581"
    },
    "SolidHeatCapacityCp": {
        "eqno": "1",
        "A": "249210",
        "Tmin": "0",
        "Tmax": "583"
    },
    "LiquidHeatCapacityCp": {
        "eqno": "16",
        "A": "36795",
        "B": "-79.414",
        "C": "11.689",
        "D": "0.0041098",
        "E": "-0.0000031494",
        "Tmin": "200",
        "Tmax": "403.81"
    },
    "IdealGasHeatCapacityCp": {
        "eqno": "16",
        "A": "84170",
        "B": "-452.22",
        "C": "13.167",
        "D": "0.00035197",
        "E": "-1.1076E-07",
        "Tmin": "200",
        "Tmax": "1500"
    },
    "SecondVirialCoefficient": {
        "eqno": "104",
        "A": "0.33299",
        "B": "-391.8",
        "C": "-66.527",
        "D": "-6374",
        "E": "-5982.8",
        "Tmin": "290.5",
        "Tmax": "1500"
    },
    "LiquidViscosity": {
        "eqno": "101",
        "A": "-6.9748",
        "B": "1194.1",
        "C": "-0.75025",
        "D": "-2.9452E-08",
        "E": "2",
        "Tmin": "159.78",
        "Tmax": "524.7"
    },
    "VaporViscosity": {
        "eqno": "102",
        "A": "0.0000003308",
        "B": "0.60466",
        "C": "252.52",
        "D": "-7535.6",
        "Tmin": "159.78",
        "Tmax": "1000"
    },
    "LiquidThermalConductivity": {
        "eqno": "16",
        "A": "-0.061213",
        "B": "3.6115",
        "C": "-1.5687",
        "D": "-0.00048198",
        "E": "-0.000001134",
        "Tmin": "159.78",
        "Tmax": "403.81"
    },
    "VaporThermalConductivity": {
        "eqno": "102",
        "A": "0.000028131",
        "B": "1.1825",
        "C": "-103.57",
        "D": "142450",
        "Tmin": "159.78",
        "Tmax": "1000"
    },
    "SurfaceTension": {
        "eqno": "16",
        "A": "-0.016164",
        "B": "11.187",
        "C": "-2.915",
        "D": "-0.00065885",
        "E": "-0.0000025171",
        "Tmin": "159.78",
        "Tmax": "581"
    },
    "RPPHeatCapacityCp": {
        "eqno": "4",
        "A": "-26639",
        "B": "942.63",
        "C": "-0.52031",
        "D": "0.00011267",
        "Tmin": "200",
        "Tmax": "1500"
    },
    "AntoineVaporPressure": {
        "eqno": "10",
        "A": "20.68",
        "B": "3161.4",
        "C": "-58.474",
        "Tmin": "351",
        "Tmax": "514.49"
    },
    "LiquidViscosityRPS": {
        "eqno": "12",
        "A": "-1.6176",
        "B": "-0.017458",
        "Tmin": "159.78",
        "Tmax": "460"
    },
    "COSTALDVolume": "0.5501",
    "DiameterLJ": "7.502101E-10",
    "EnergyLJ": "298.185",
    "RacketParameter": "0.26",
    "FullerVolume": "189.3",
    "Parachor": "0.0676501",
    "SpecificGravity": "0.728934",
    "Charge": "0",
    "CostaldAcentricFactor": "0.352203",
    "WilsonVolume": "0.178125",
    "UniquacR": "6.5207",
    "UniquacQ": "5.548",
    "ChaoSeaderAcentricFactor": "0.352203",
    "ChaoSeaderSolubilityParameter": "14590",
    "ChaoSeaderLiquidVolume": "0.178125",
    "UnifacVLE": {
        "group": "1"
    },
    "UnifacLLE": {
        "group": "1"
    },
    "Asog": {
        "group": "1"
    },
    "GCmethod": {
        "group": "1"
    },
    "Umr": {
        "group": "1"
    },
    "ModifiedUnifac": {
        "group": "1"
    },
    "CAS": "16747-30-1",
    "Smiles": "CC(C)CC(C)(C)CC"
}