{
    "LibraryIndex": "23",
    "CompoundID": "2,4-dimethylpentane",
    "StructureFormula": "(CH3)2CHCH2CH(CH3)2",
    "Family": "4",
    "CriticalTemperature": "519.7",
    "CriticalPressure": "2740000",
    "CriticalVolume": "0.4175",
    "CriticalCompressibility": "0.265",
    "NormalBoilingPointTemperature": "353.62",
    "NormalMeltingPointTemperature": "153.908",
    "TriplePointTemperature": "153.912",
    "TriplePointPressure": "0.0066994",
    "MolecularWeight": "100.202",
    "LiquidVolumeAtNormalBoilingPoint": "0.14995",
    "AcentricityFactor": "0.304",
    "RadiusOfGyration": "3.931E-10",
    "SolubilityParameter": "14290",
    "DipoleMoment": "0",
    "VanDerWaalsVolume": "0.07847",
    "VanDerWaalsArea": "1.097E+09",
    "HeatOfFormation": "-2.0167E+08",
    "GibbsEnergyOfFormation": "3310000",
    "AbsEntropy": "397000",
    "HeatOfFusionAtMeltingPoint": "6845000",
    "MatthiasCopemanC1": "0.98683",
    "HeatOfCombustion": "-4.454E+09",
    "SolidDensity": {
        "eqno": "2",
        "A": "9.8066",
        "B": "-0.0070643",
        "C": "0",
        "D": "0",
        "E": "0",
        "Tmin": "61.56",
        "Tmax": "153.91"
    },
    "LiquidDensity": {
        "eqno": "105",
        "A": "0.49944",
        "B": "0.24101",
        "C": "519.81",
        "D": "0.23086",
        "Tmin": "153.91",
        "Tmax": "519.8"
    },
    "VaporPressure": {
        "eqno": "101",
        "A": "86.23433",
        "B": "-6498.287",
        "C": "-9.772628",
        "D": "8.133363E-06",
        "E": "2",
        "Tmin": "153.91",
        "Tmax": "519.8"
    },
    "HeatOfVaporization": {
        "eqno": "106",
        "A": "5.636917E+07",
        "B": "1.083678",
        "C": "-0.919235",
        "D": "0.1428",
        "E": "0.13605",
        "Tmin": "153.91",
        "Tmax": "500.54"
    },
    "SolidHeatCapacityCp": {
        "eqno": "100",
        "A": "-12608",
        "B": "1762.6",
        "C": "-13.048",
        "D": "0.063651",
        "E": "-0.00007828",
        "Tmin": "10",
        "Tmax": "153.97"
    },
    "LiquidHeatCapacityCp": {
        "eqno": "16",
        "A": "90283",
        "B": "22.117",
        "C": "10.293",
        "D": "0.0058192",
        "E": "-0.0000033296",
        "Tmin": "153.91",
        "Tmax": "353.64"
    },
    "IdealGasHeatCapacityCp": {
        "eqno": "16",
        "A": "66100",
        "B": "-427.67",
        "C": "12.876",
        "D": "0.00036594",
        "E": "-1.1245E-07",
        "Tmin": "200",
        "Tmax": "1500"
    },
    "SecondVirialCoefficient": {
        "eqno": "104",
        "A": "0.24162",
        "B": "-300.13",
        "C": "-33.208",
        "D": "-3009.2",
        "E": "4339.2",
        "Tmin": "259.89",
        "Tmax": "1898"
    },
    "LiquidViscosity": {
        "eqno": "101",
        "A": "-15.849",
        "B": "1204.5",
        "C": "0.70216",
        "D": "-0.0000021284",
        "E": "2",
        "Tmin": "153.91",
        "Tmax": "400"
    },
    "VaporViscosity": {
        "eqno": "102",
        "A": "1.8633E-07",
        "B": "0.67603",
        "C": "100.62",
        "D": "-68.047",
        "Tmin": "153.91",
        "Tmax": "1000"
    },
    "LiquidThermalConductivity": {
        "eqno": "16",
        "A": "-0.10048",
        "B": "3.798",
        "C": "-1.3824",
        "D": "-0.00040413",
        "E": "-0.0000011783",
        "Tmin": "153.91",
        "Tmax": "353.64"
    },
    "VaporThermalConductivity": {
        "eqno": "102",
        "A": "0.0002569",
        "B": "0.9033",
        "C": "147.33",
        "D": "182490",
        "Tmin": "153.912",
        "Tmax": "1000"
    },
    "SurfaceTension": {
        "eqno": "16",
        "A": "-0.012625",
        "B": "19.642",
        "C": "-3.0872",
        "D": "-0.00025299",
        "E": "-0.0000045089",
        "Tmin": "153.91",
        "Tmax": "500.54"
    },
    "RPPHeatCapacityCp": {
        "eqno": "100",
        "A": "-26049",
        "B": "814.18",
        "C": "-0.5747",
        "D": "0.00020154",
        "E": "-2.0786E-08",
        "Tmin": "200",
        "Tmax": "1000"
    },
    "RelativeStaticPermittivity": {
        "eqno": "120",
        "A": "-1.404923",
        "B": "-950",
        "C": "-5.7",
        "Tmin": "274.15",
        "Tmax": "444.15"
    },
    "AntoineVaporPressure": {
        "eqno": "10",
        "A": "20.806",
        "B": "2858.9",
        "C": "-45.57",
        "Tmin": "314.93",
        "Tmax": "463.15"
    },
    "LiquidViscosityRPS": {
        "eqno": "12",
        "A": "-2.3132",
        "B": "-0.018947",
        "Tmin": "153.91",
        "Tmax": "353.64"
    },
    "COSTALDVolume": "0.425834",
    "DiameterLJ": "6.863866E-10",
    "EnergyLJ": "284.6761",
    "RacketParameter": "0.265",
    "FullerVolume": "148.26",
    "MatthiasCopemanC2": "-0.47506",
    "Parachor": "0.0543304",
    "SpecificGravity": "0.676494",
    "Charge": "0",
    "CostaldAcentricFactor": "0.304",
    "WilsonVolume": "0.14995",
    "UniquacR": "5.1726",
    "UniquacQ": "4.388",
    "ApiSrkS2": "0.000811",
    "MatthiasCopemanC3": "1.0567",
    "ChaoSeaderAcentricFactor": "0.304",
    "ChaoSeaderSolubilityParameter": "14290",
    "ChaoSeaderLiquidVolume": "0.14995",
    "UnifacVLE": {
        "group": "2"
    },
    "UnifacLLE": {
        "group": "2"
    },
    "Asog": {
        "group": "2"
    },
    "GCmethod": {
        "group": "2"
    },
    "Umr": {
        "group": "2"
    },
    "ModifiedUnifac": {
        "group": "2"
    },
    "CAS": "108-08-7",
    "Smiles": "CC(C)CC(C)C"
}