{
    "LibraryIndex": "35",
    "CompoundID": "2,5-dimethylhexane",
    "StructureFormula": "CH3CH(CH3)CH2CH2CH(CH3)CH3",
    "Family": "4",
    "CriticalTemperature": "550",
    "CriticalPressure": "2490000",
    "CriticalVolume": "0.482",
    "CriticalCompressibility": "0.262",
    "NormalBoilingPointTemperature": "382.26",
    "NormalMeltingPointTemperature": "182",
    "TriplePointTemperature": "182",
    "TriplePointPressure": "0.0683715",
    "MolecularWeight": "114.2285",
    "LiquidVolumeAtNormalBoilingPoint": "0.1657",
    "AcentricityFactor": "0.357",
    "RadiusOfGyration": "4.452E-10",
    "SolubilityParameter": "14740",
    "DipoleMoment": "0",
    "VanDerWaalsVolume": "0.0886999",
    "VanDerWaalsArea": "1.232E+09",
    "HeatOfFormation": "-2.22631E+08",
    "GibbsEnergyOfFormation": "1.046E+07",
    "AbsEntropy": "442330",
    "HeatOfFusionAtMeltingPoint": "1.29537E+07",
    "MatthiasCopemanC1": "1.0696",
    "HeatOfCombustion": "-5.06398E+09",
    "SolidDensity": {
        "eqno": "2",
        "A": "8.6373",
        "B": "-0.0052793",
        "C": "0",
        "D": "0",
        "E": "0",
        "Tmin": "72.8",
        "Tmax": "182"
    },
    "LiquidDensity": {
        "eqno": "105",
        "A": "0.49779",
        "B": "0.2525",
        "C": "550",
        "D": "0.26429",
        "Tmin": "182",
        "Tmax": "550"
    },
    "VaporPressure": {
        "eqno": "101",
        "A": "87.65473",
        "B": "-7122.285",
        "C": "-9.843559",
        "D": "7.04047E-06",
        "E": "2",
        "Tmin": "182",
        "Tmax": "550"
    },
    "HeatOfVaporization": {
        "eqno": "106",
        "A": "6.2389E+07",
        "B": "1.0017",
        "C": "-0.72582",
        "D": "-0.024698",
        "E": "0.19155",
        "Tmin": "182",
        "Tmax": "550"
    },
    "SolidHeatCapacityCp": {
        "eqno": "1",
        "A": "223200",
        "Tmin": "0",
        "Tmax": "550"
    },
    "LiquidHeatCapacityCp": {
        "eqno": "16",
        "A": "-51796",
        "B": "-110.09",
        "C": "12.759",
        "D": "0.00089408",
        "E": "-0.0000004354",
        "Tmin": "208.7",
        "Tmax": "382.26"
    },
    "IdealGasHeatCapacityCp": {
        "eqno": "16",
        "A": "66542",
        "B": "-399.08",
        "C": "12.9",
        "D": "0.00049831",
        "E": "-1.6255E-07",
        "Tmin": "200",
        "Tmax": "1500"
    },
    "SecondVirialCoefficient": {
        "eqno": "104",
        "A": "0.27338",
        "B": "-354.69",
        "C": "-46.241",
        "D": "-8382",
        "E": "15583",
        "Tmin": "275",
        "Tmax": "2000"
    },
    "LiquidViscosity": {
        "eqno": "101",
        "A": "-2.9399",
        "B": "836.45",
        "C": "-1.3966",
        "D": "0.00000447",
        "E": "2",
        "Tmin": "200",
        "Tmax": "400"
    },
    "VaporViscosity": {
        "eqno": "102",
        "A": "8.3872E-07",
        "B": "0.47833",
        "C": "344.26",
        "D": "27.957",
        "Tmin": "382.26",
        "Tmax": "1000"
    },
    "LiquidThermalConductivity": {
        "eqno": "16",
        "A": "-0.074336",
        "B": "3.6543",
        "C": "-1.5091",
        "D": "-0.00039812",
        "E": "-0.0000013255",
        "Tmin": "182",
        "Tmax": "382.26"
    },
    "VaporThermalConductivity": {
        "eqno": "102",
        "A": "0.000029331",
        "B": "1.1695",
        "C": "-138.07",
        "D": "145330",
        "Tmin": "182",
        "Tmax": "1000"
    },
    "SurfaceTension": {
        "eqno": "16",
        "A": "-0.0092168",
        "B": "46.652",
        "C": "-3.4804",
        "D": "0.0011019",
        "E": "-0.0000063095",
        "Tmin": "182",
        "Tmax": "550"
    },
    "RPPHeatCapacityCp": {
        "eqno": "100",
        "A": "-11366",
        "B": "725.73",
        "C": "-0.14958",
        "D": "-0.00027795",
        "E": "0.0000001544",
        "Tmin": "200",
        "Tmax": "1000"
    },
    "RelativeStaticPermittivity": {
        "eqno": "120",
        "A": "-1.796538",
        "B": "-1200",
        "C": "-7.2",
        "Tmin": "274.15",
        "Tmax": "444.15"
    },
    "AntoineVaporPressure": {
        "eqno": "10",
        "A": "20.777",
        "B": "3002.6",
        "C": "-57.773",
        "Tmin": "333.13",
        "Tmax": "491.89"
    },
    "LiquidViscosityRPS": {
        "eqno": "12",
        "A": "-3.9193",
        "B": "-0.01228",
        "Tmin": "200",
        "Tmax": "382.26"
    },
    "COSTALDVolume": "0.486848",
    "DiameterLJ": "7.299601E-10",
    "EnergyLJ": "289.1748",
    "RacketParameter": "0.262",
    "FullerVolume": "168.78",
    "MatthiasCopemanC2": "-0.48407",
    "Parachor": "0.0616138",
    "SpecificGravity": "0.698238",
    "Charge": "0",
    "CostaldAcentricFactor": "0.357",
    "WilsonVolume": "0.1657",
    "UniquacR": "5.847",
    "UniquacQ": "4.928",
    "ApiSrkS2": "-0.001621",
    "MatthiasCopemanC3": "1.0187",
    "ChaoSeaderAcentricFactor": "0.357",
    "ChaoSeaderSolubilityParameter": "14740",
    "ChaoSeaderLiquidVolume": "0.1657",
    "UnifacVLE": {
        "group": "2"
    },
    "UnifacLLE": {
        "group": "2"
    },
    "Asog": {
        "group": "2"
    },
    "GCmethod": {
        "group": "2"
    },
    "Umr": {
        "group": "2"
    },
    "ModifiedUnifac": {
        "group": "2"
    },
    "CAS": "592-13-2",
    "Smiles": "CC(C)CCC(C)C"
}