{
    "LibraryIndex": "2744",
    "CompoundID": "2,6-dinitrotoluene",
    "StructureFormula": "CH3(C6H3)(NO2)2",
    "Family": "39",
    "CriticalTemperature": "780",
    "CriticalPressure": "3400000",
    "CriticalVolume": "0.487",
    "CriticalCompressibility": "0.242",
    "NormalBoilingPointTemperature": "553",
    "NormalMeltingPointTemperature": "339",
    "TriplePointTemperature": "337.85",
    "TriplePointPressure": "24.9565",
    "MolecularWeight": "182.1335",
    "LiquidVolumeAtNormalBoilingPoint": "0.136568",
    "AcentricityFactor": "0.714206",
    "RadiusOfGyration": "4.887E-10",
    "SolubilityParameter": "20760",
    "DipoleMoment": "9.37E-30",
    "VanDerWaalsVolume": "0.08807",
    "VanDerWaalsArea": "1.112E+09",
    "HeatOfFormation": "2.86E+07",
    "GibbsEnergyOfFormation": "2.32E+08",
    "AbsEntropy": "414000",
    "HeatOfFusionAtMeltingPoint": "2.12E+07",
    "HeatOfCombustion": "-3.429E+09",
    "SolidDensity": {
        "eqno": "2",
        "A": "8.4498",
        "B": "-1.9264E-08",
        "C": "0",
        "D": "0",
        "E": "0",
        "Tmin": "288.15",
        "Tmax": "297.65"
    },
    "LiquidDensity": {
        "eqno": "105",
        "A": "0.27332",
        "B": "0.17415",
        "C": "780",
        "D": "0.22386",
        "Tmin": "337.85",
        "Tmax": "747.26"
    },
    "VaporPressure": {
        "eqno": "101",
        "A": "115.7657",
        "B": "-12082.2",
        "C": "-13.31782",
        "D": "5.09858E-06",
        "E": "2",
        "Tmin": "337.85",
        "Tmax": "770"
    },
    "HeatOfVaporization": {
        "eqno": "106",
        "A": "1.041715E+08",
        "B": "1.247529",
        "C": "0.0309575",
        "D": "-2.851863",
        "E": "1.938855",
        "Tmin": "337.85",
        "Tmax": "770"
    },
    "SolidHeatCapacityCp": {
        "eqno": "100",
        "A": "8264.5",
        "B": "917.86",
        "C": "-1.527",
        "D": "0.0032636",
        "E": "-0.0000030408",
        "Tmin": "50",
        "Tmax": "337.85"
    },
    "LiquidHeatCapacityCp": {
        "eqno": "16",
        "A": "163490",
        "B": "785.69",
        "C": "5.0684",
        "D": "0.014589",
        "E": "-0.0000070833",
        "Tmin": "337.85",
        "Tmax": "558"
    },
    "IdealGasHeatCapacityCp": {
        "eqno": "16",
        "A": "94512",
        "B": "-582.56",
        "C": "13.27",
        "D": "-0.00026587",
        "E": "5.3735E-08",
        "Tmin": "273",
        "Tmax": "1500"
    },
    "SecondVirialCoefficient": {
        "eqno": "104",
        "A": "0.5317",
        "B": "-704.49",
        "C": "-124.14",
        "D": "-895340",
        "E": "2377800",
        "Tmin": "385",
        "Tmax": "1500"
    },
    "LiquidViscosity": {
        "eqno": "101",
        "A": "-70.386",
        "B": "5310.9",
        "C": "8.6262",
        "D": "-0.0000081126",
        "E": "2",
        "Tmin": "337.85",
        "Tmax": "714"
    },
    "VaporViscosity": {
        "eqno": "102",
        "A": "5.9592E-08",
        "B": "0.88167",
        "C": "135.78",
        "D": "-11605",
        "Tmin": "337.85",
        "Tmax": "1000"
    },
    "LiquidThermalConductivity": {
        "eqno": "16",
        "A": "-0.039901",
        "B": "-99.466",
        "C": "-0.76681",
        "D": "-0.0019329",
        "E": "1.8512E-07",
        "Tmin": "337.85",
        "Tmax": "558"
    },
    "VaporThermalConductivity": {
        "eqno": "102",
        "A": "0.00015932",
        "B": "0.92355",
        "C": "690.15",
        "D": "19720",
        "Tmin": "274",
        "Tmax": "1000"
    },
    "SurfaceTension": {
        "eqno": "16",
        "A": "-0.012803",
        "B": "255.04",
        "C": "-4.0121",
        "D": "0.0034159",
        "E": "-0.0000055401",
        "Tmin": "337.85",
        "Tmax": "770"
    },
    "RPPHeatCapacityCp": {
        "eqno": "4",
        "A": "-14258",
        "B": "768.51",
        "C": "-0.52986",
        "D": "0.00013246",
        "Tmin": "273",
        "Tmax": "1500"
    },
    "AntoineVaporPressure": {
        "eqno": "10",
        "A": "26.68",
        "B": "10368",
        "C": "125.19",
        "Tmin": "470",
        "Tmax": "701.77"
    },
    "LiquidViscosityRPS": {
        "eqno": "12",
        "A": "-0.49935",
        "B": "-0.0153",
        "Tmin": "337.85",
        "Tmax": "558"
    },
    "COSTALDVolume": "0.483027",
    "DiameterLJ": "8.057052E-10",
    "EnergyLJ": "308.1365",
    "RacketParameter": "0.242",
    "FullerVolume": "122.08",
    "Parachor": "0.0654633",
    "SpecificGravity": "1.383668",
    "Charge": "0",
    "CostaldAcentricFactor": "0.714206",
    "WilsonVolume": "0.136568",
    "UniquacR": "5.7",
    "UniquacQ": "4.376",
    "ChaoSeaderAcentricFactor": "0.714206",
    "ChaoSeaderSolubilityParameter": "20760",
    "ChaoSeaderLiquidVolume": "0.136568",
    "UnifacVLE": {
        "group": "2"
    },
    "UnifacLLE": {
        "group": "2"
    },
    "Asog": {
        "group": "2"
    },
    "Umr": {
        "group": "2"
    },
    "ModifiedUnifac": {
        "group": "2"
    },
    "CAS": "606-20-2",
    "Smiles": "c1c(N(=O)=O)c(C)c(N(=O)=O)cc1"
}