{
    "LibraryIndex": "1063",
    "CompoundID": "2-heptanone",
    "StructureFormula": "CH3CO(CH2)4CH3",
    "Family": "26",
    "CriticalTemperature": "611.55",
    "CriticalPressure": "2920000",
    "CriticalVolume": "0.421",
    "CriticalCompressibility": "0.251",
    "NormalBoilingPointTemperature": "424.05",
    "NormalMeltingPointTemperature": "238.15",
    "TriplePointTemperature": "238.15",
    "TriplePointPressure": "3.54477",
    "MolecularWeight": "114.1855",
    "LiquidVolumeAtNormalBoilingPoint": "0.140675",
    "AcentricityFactor": "0.418982",
    "RadiusOfGyration": "4.498E-10",
    "SolubilityParameter": "17400",
    "DipoleMoment": "8.71E-30",
    "VanDerWaalsVolume": "0.07996",
    "VanDerWaalsArea": "1.124E+09",
    "HeatOfFormation": "-3.00453E+08",
    "GibbsEnergyOfFormation": "-1.21796E+08",
    "AbsEntropy": "456893",
    "HeatOfFusionAtMeltingPoint": "1.84E+07",
    "MatthiasCopemanC1": "1.1875",
    "HeatOfCombustion": "-4.09952E+09",
    "SolidDensity": {
        "eqno": "2",
        "A": "9.5843",
        "B": "-0.0044928",
        "C": "0",
        "D": "0",
        "E": "0",
        "Tmin": "95.26",
        "Tmax": "238.15"
    },
    "LiquidDensity": {
        "eqno": "105",
        "A": "0.42296",
        "B": "0.21673",
        "C": "611.55",
        "D": "0.2517",
        "Tmin": "238.15",
        "Tmax": "611.4"
    },
    "VaporPressure": {
        "eqno": "101",
        "A": "104.1321",
        "B": "-8934.299",
        "C": "-12.02629",
        "D": "6.758209E-06",
        "E": "2",
        "Tmin": "238.15",
        "Tmax": "611.4"
    },
    "HeatOfVaporization": {
        "eqno": "106",
        "A": "6.522658E+07",
        "B": "0.472207",
        "C": "0.238382",
        "D": "-0.54369",
        "E": "0.222217",
        "Tmin": "238.15",
        "Tmax": "611.4"
    },
    "SolidHeatCapacityCp": {
        "eqno": "100",
        "A": "7238.3",
        "B": "975.88",
        "C": "-2.0519",
        "D": "0.0057069",
        "E": "-0.000007064",
        "Tmin": "50",
        "Tmax": "238.15"
    },
    "LiquidHeatCapacityCp": {
        "eqno": "16",
        "A": "168580",
        "B": "759.37",
        "C": "3.3604",
        "D": "0.023088",
        "E": "-0.000017848",
        "Tmin": "238.15",
        "Tmax": "490"
    },
    "IdealGasHeatCapacityCp": {
        "eqno": "16",
        "A": "119760",
        "B": "-702.71",
        "C": "13.229",
        "D": "-0.000074262",
        "E": "-4.5595E-08",
        "Tmin": "150",
        "Tmax": "1200"
    },
    "SecondVirialCoefficient": {
        "eqno": "104",
        "A": "0.28693",
        "B": "-334.98",
        "C": "-80.089",
        "D": "-38529",
        "E": "52793",
        "Tmin": "305.7",
        "Tmax": "1955.78"
    },
    "LiquidViscosity": {
        "eqno": "101",
        "A": "-9.5709",
        "B": "1186.6",
        "C": "-0.30187",
        "D": "0.0000013185",
        "E": "2",
        "Tmin": "250",
        "Tmax": "511"
    },
    "VaporViscosity": {
        "eqno": "102",
        "A": "1.5766E-07",
        "B": "0.71212",
        "C": "201.61",
        "D": "-8396.4",
        "Tmin": "238.15",
        "Tmax": "1000"
    },
    "LiquidThermalConductivity": {
        "eqno": "16",
        "A": "0.061916",
        "B": "-162.99",
        "C": "-0.59984",
        "D": "-0.0044095",
        "E": "-0.0000013415",
        "Tmin": "238.15",
        "Tmax": "424.05"
    },
    "VaporThermalConductivity": {
        "eqno": "102",
        "A": "2047.3",
        "B": "1.0324",
        "C": "2.297E+10",
        "D": "7.8096E+08",
        "Tmin": "238.15",
        "Tmax": "1000"
    },
    "SurfaceTension": {
        "eqno": "16",
        "A": "-0.006816",
        "B": "130.1",
        "C": "-4.0853",
        "D": "0.0033192",
        "E": "-0.0000084854",
        "Tmin": "238.15",
        "Tmax": "611.4"
    },
    "RPPHeatCapacityCp": {
        "eqno": "4",
        "A": "53177",
        "B": "423.37",
        "C": "-0.032339",
        "D": "-0.000077198",
        "Tmin": "150",
        "Tmax": "1200"
    },
    "RelativeStaticPermittivity": {
        "eqno": "120",
        "A": "-11.272",
        "B": "-5975",
        "C": "-35.85",
        "Tmin": "275",
        "Tmax": "445"
    },
    "AntoineVaporPressure": {
        "eqno": "10",
        "A": "21.063",
        "B": "3363.5",
        "C": "-71.468",
        "Tmin": "367",
        "Tmax": "550"
    },
    "LiquidViscosityRPS": {
        "eqno": "12",
        "A": "-3.9476",
        "B": "-0.010818",
        "Tmin": "250",
        "Tmax": "424.18"
    },
    "COSTALDVolume": "0.434587",
    "DiameterLJ": "7.34622E-10",
    "EnergyLJ": "275.531",
    "RacketParameter": "0.251",
    "FullerVolume": "149.75",
    "MatthiasCopemanC2": "-0.64789",
    "Parachor": "0.0563666",
    "SpecificGravity": "0.820117",
    "Charge": "0",
    "CostaldAcentricFactor": "0.418982",
    "WilsonVolume": "0.140675",
    "UniquacR": "5.2711",
    "UniquacQ": "4.496",
    "MatthiasCopemanC3": "1.3304",
    "ChaoSeaderAcentricFactor": "0.418982",
    "ChaoSeaderSolubilityParameter": "17400",
    "ChaoSeaderLiquidVolume": "0.140675",
    "UnifacVLE": {
        "group": "1"
    },
    "UnifacLLE": {
        "group": "1"
    },
    "Asog": {
        "group": "1"
    },
    "Umr": {
        "group": "1"
    },
    "ModifiedUnifac": {
        "group": "1"
    },
    "CAS": "110-43-0",
    "Smiles": "CC(=O)CCCCC"
}