{
    "LibraryIndex": "1062",
    "CompoundID": "2-hexanone",
    "StructureFormula": "CH3COCH2CH2CH2CH3",
    "Family": "26",
    "CriticalTemperature": "587",
    "CriticalPressure": "3320000",
    "CriticalVolume": "0.378",
    "CriticalCompressibility": "0.254",
    "NormalBoilingPointTemperature": "400.7",
    "NormalMeltingPointTemperature": "217.35",
    "TriplePointTemperature": "217.35",
    "TriplePointPressure": "1.44559",
    "MolecularWeight": "100.1589",
    "LiquidVolumeAtNormalBoilingPoint": "0.1241",
    "AcentricityFactor": "0.393",
    "RadiusOfGyration": "4.093E-10",
    "SolubilityParameter": "17600",
    "DipoleMoment": "8.94E-30",
    "VanDerWaalsVolume": "0.06973",
    "VanDerWaalsArea": "9.89E+08",
    "HeatOfFormation": "-2.79826E+08",
    "GibbsEnergyOfFormation": "-1.30081E+08",
    "AbsEntropy": "417856",
    "HeatOfFusionAtMeltingPoint": "1.49E+07",
    "MatthiasCopemanC1": "1.06376",
    "HeatOfCombustion": "-3.49E+09",
    "SolidDensity": {
        "eqno": "2",
        "A": "11.083",
        "B": "-0.0056905",
        "C": "0",
        "D": "0",
        "E": "0",
        "Tmin": "86.94",
        "Tmax": "217.35"
    },
    "LiquidDensity": {
        "eqno": "105",
        "A": "0.58528",
        "B": "0.23872",
        "C": "587.62",
        "D": "0.26191",
        "Tmin": "217.35",
        "Tmax": "587.61"
    },
    "VaporPressure": {
        "eqno": "101",
        "A": "81.22606",
        "B": "-7467.987",
        "C": "-8.650385",
        "D": "4.736711E-06",
        "E": "2",
        "Tmin": "217.35",
        "Tmax": "587.61"
    },
    "HeatOfVaporization": {
        "eqno": "106",
        "A": "8.140665E+07",
        "B": "1.724728",
        "C": "-1.991428",
        "D": "0.65901",
        "E": "0.10235",
        "Tmin": "217.35",
        "Tmax": "568.12"
    },
    "SolidHeatCapacityCp": {
        "eqno": "100",
        "A": "5223.7",
        "B": "839.15",
        "C": "4.7323",
        "D": "-0.068211",
        "E": "0.00021333",
        "Tmin": "39.76",
        "Tmax": "217.69"
    },
    "LiquidHeatCapacityCp": {
        "eqno": "16",
        "A": "171430",
        "B": "304.46",
        "C": "6.7554",
        "D": "0.010928",
        "E": "-0.0000044198",
        "Tmin": "217.35",
        "Tmax": "460"
    },
    "IdealGasHeatCapacityCp": {
        "eqno": "16",
        "A": "101950",
        "B": "-647",
        "C": "12.874",
        "D": "0.00017699",
        "E": "-1.3836E-07",
        "Tmin": "200",
        "Tmax": "1200"
    },
    "SecondVirialCoefficient": {
        "eqno": "104",
        "A": "0.24744",
        "B": "-284.68",
        "C": "-57.772",
        "D": "-30750",
        "E": "48339",
        "Tmin": "293.8",
        "Tmax": "1877.53"
    },
    "LiquidViscosity": {
        "eqno": "101",
        "A": "-9.5407",
        "B": "1129.1",
        "C": "-0.30673",
        "D": "6.1273E-07",
        "E": "2",
        "Tmin": "217.35",
        "Tmax": "473"
    },
    "VaporViscosity": {
        "eqno": "102",
        "A": "1.7562E-07",
        "B": "0.7037",
        "C": "196.23",
        "D": "-7085.8",
        "Tmin": "217.35",
        "Tmax": "1000"
    },
    "LiquidThermalConductivity": {
        "eqno": "16",
        "A": "-0.0056603",
        "B": "-27.398",
        "C": "-1.2811",
        "D": "-0.0017572",
        "E": "-3.9285E-07",
        "Tmin": "217.35",
        "Tmax": "400.85"
    },
    "VaporThermalConductivity": {
        "eqno": "102",
        "A": "-0.96934",
        "B": "0.03859",
        "C": "-1883.3",
        "D": "-1.1142E+07",
        "Tmin": "217.35",
        "Tmax": "1000"
    },
    "SurfaceTension": {
        "eqno": "16",
        "A": "-0.0081399",
        "B": "117.23",
        "C": "-3.9614",
        "D": "0.003099",
        "E": "-0.0000084515",
        "Tmin": "217.35",
        "Tmax": "568.12"
    },
    "RPPHeatCapacityCp": {
        "eqno": "100",
        "A": "76044",
        "B": "72.344",
        "C": "0.89264",
        "D": "-0.0012053",
        "E": "4.7958E-07",
        "Tmin": "200",
        "Tmax": "1000"
    },
    "AntoineVaporPressure": {
        "eqno": "10",
        "A": "21.044",
        "B": "3173.6",
        "C": "-67.224",
        "Tmin": "353.76",
        "Tmax": "525"
    },
    "LiquidViscosityRPS": {
        "eqno": "12",
        "A": "-3.3896",
        "B": "-0.013212",
        "Tmin": "217.35",
        "Tmax": "400.7"
    },
    "COSTALDVolume": "0.375336",
    "DiameterLJ": "6.986748E-10",
    "EnergyLJ": "276.0277",
    "RacketParameter": "0.254",
    "FullerVolume": "129.23",
    "MatthiasCopemanC2": "0",
    "Parachor": "0.0492648",
    "SpecificGravity": "0.81617",
    "Charge": "0",
    "CostaldAcentricFactor": "0.393",
    "WilsonVolume": "0.1241",
    "UniquacR": "4.5967",
    "UniquacQ": "3.956",
    "MatthiasCopemanC3": "0",
    "ChaoSeaderAcentricFactor": "0.393",
    "ChaoSeaderSolubilityParameter": "17600",
    "ChaoSeaderLiquidVolume": "0.1241",
    "UnifacVLE": {
        "group": "1"
    },
    "UnifacLLE": {
        "group": "1"
    },
    "Asog": {
        "group": "1"
    },
    "Umr": {
        "group": "1"
    },
    "ModifiedUnifac": {
        "group": "1"
    },
    "CAS": "591-78-6",
    "Smiles": "CC(=O)CCCC"
}