{
    "LibraryIndex": "724",
    "CompoundID": "2-methylindene",
    "StructureFormula": "CH3(C9H7)",
    "Family": "23",
    "CriticalTemperature": "711",
    "CriticalPressure": "3460000",
    "CriticalVolume": "0.436",
    "CriticalCompressibility": "0.255",
    "NormalBoilingPointTemperature": "479.45",
    "NormalMeltingPointTemperature": "353.15",
    "TriplePointTemperature": "353.15",
    "TriplePointPressure": "3020.69",
    "MolecularWeight": "130.1864",
    "LiquidVolumeAtNormalBoilingPoint": "0.13407",
    "AcentricityFactor": "0.350814",
    "RadiusOfGyration": "4.21E-10",
    "SolubilityParameter": "19650",
    "DipoleMoment": "0",
    "VanDerWaalsVolume": "0.07744",
    "VanDerWaalsArea": "8.88E+08",
    "HeatOfFormation": "1.15E+08",
    "GibbsEnergyOfFormation": "2.19E+08",
    "AbsEntropy": "361000",
    "HeatOfFusionAtMeltingPoint": "0",
    "HeatOfCombustion": "-5.21E+09",
    "SolidDensity": {
        "eqno": "2",
        "A": "8.8568",
        "B": "-0.0013205",
        "Tmin": "0",
        "Tmax": "353.15"
    },
    "LiquidDensity": {
        "eqno": "105",
        "A": "0.58652",
        "B": "0.25339",
        "C": "711",
        "D": "0.28941",
        "Tmin": "280",
        "Tmax": "711"
    },
    "VaporPressure": {
        "eqno": "101",
        "A": "92.273",
        "B": "-9299.2",
        "C": "-10.097",
        "D": "0.0000042786",
        "E": "2",
        "Tmin": "280",
        "Tmax": "711"
    },
    "HeatOfVaporization": {
        "eqno": "106",
        "A": "7.303067E+07",
        "B": "0.433923",
        "C": "0.764504",
        "D": "-1.615634",
        "E": "0.843055",
        "Tmin": "280",
        "Tmax": "711"
    },
    "SolidHeatCapacityCp": {
        "eqno": "100",
        "A": "-3419.9",
        "B": "1162.6",
        "C": "-5.6175",
        "D": "0.02291",
        "E": "-0.000035065",
        "Tmin": "50",
        "Tmax": "293.15"
    },
    "LiquidHeatCapacityCp": {
        "eqno": "16",
        "A": "156160",
        "B": "-200.07",
        "C": "10.512",
        "D": "0.0025015",
        "E": "-0.0000010635",
        "Tmin": "280",
        "Tmax": "479.45"
    },
    "IdealGasHeatCapacityCp": {
        "eqno": "16",
        "A": "-154380",
        "B": "-193.88",
        "C": "13.203",
        "D": "0.00019348",
        "E": "-5.2535E-08",
        "Tmin": "273",
        "Tmax": "1200"
    },
    "SecondVirialCoefficient": {
        "eqno": "104",
        "A": "0.29598",
        "B": "-426.37",
        "C": "-103.51",
        "D": "-35570",
        "E": "-7294.6",
        "Tmin": "355.5",
        "Tmax": "1877"
    },
    "VaporViscosity": {
        "eqno": "102",
        "A": "9.6835E-07",
        "B": "0.47111",
        "C": "397.83",
        "D": "9327.5",
        "Tmin": "280",
        "Tmax": "1000"
    },
    "LiquidThermalConductivity": {
        "eqno": "16",
        "A": "0.057046",
        "B": "-181.52",
        "C": "-0.63312",
        "D": "-0.0038758",
        "E": "-8.2839E-07",
        "Tmin": "280",
        "Tmax": "479.45"
    },
    "VaporThermalConductivity": {
        "eqno": "102",
        "A": "0.00009568",
        "B": "1.0268",
        "C": "701.49",
        "D": "-31051",
        "Tmin": "353.15",
        "Tmax": "1000"
    },
    "SurfaceTension": {
        "eqno": "16",
        "A": "-0.046165",
        "B": "-77.721",
        "C": "-1.5311",
        "D": "-0.0027248",
        "E": "9.8161E-07",
        "Tmin": "280",
        "Tmax": "711"
    },
    "RPPHeatCapacityCp": {
        "eqno": "4",
        "A": "-89608",
        "B": "1020.3",
        "C": "-0.836",
        "D": "0.00026368",
        "Tmin": "300",
        "Tmax": "1200"
    },
    "AntoineVaporPressure": {
        "eqno": "10",
        "A": "21.171",
        "B": "3944.4",
        "C": "-70.171",
        "Tmin": "438.79",
        "Tmax": "620.26"
    },
    "COSTALDVolume": "0.419809",
    "DiameterLJ": "7.292766E-10",
    "EnergyLJ": "339.0997",
    "RacketParameter": "0.259776",
    "FullerVolume": "145.5",
    "Parachor": "0.0578",
    "SpecificGravity": "0.97849",
    "Charge": "0",
    "CostaldAcentricFactor": "0.32769",
    "WilsonVolume": "0.133656",
    "UniquacR": "5.104812",
    "UniquacQ": "3.552",
    "ChaoSeaderAcentricFactor": "0.32769",
    "ChaoSeaderSolubilityParameter": "17790.3",
    "ChaoSeaderLiquidVolume": "0.133656",
    "UnifacVLE": {
        "group": "1"
    },
    "UnifacLLE": {
        "group": "1"
    },
    "Asog": {
        "group": "1"
    },
    "GCmethod": {
        "group": "1"
    },
    "Umr": {
        "group": "1"
    },
    "ModifiedUnifac": {
        "group": "1"
    },
    "CAS": "2177-47-1",
    "Smiles": "C1=CC=C2C(=C1)C=C(C2)C"
}