{
    "LibraryIndex": "1111",
    "CompoundID": "2-methyl-2-butanol",
    "StructureFormula": "CH3CH2C(CH3)(OH)CH3",
    "Family": "46",
    "CriticalTemperature": "545",
    "CriticalPressure": "3790000",
    "CriticalVolume": "0.323",
    "CriticalCompressibility": "0.27",
    "NormalBoilingPointTemperature": "375.15",
    "NormalMeltingPointTemperature": "264.35",
    "TriplePointTemperature": "264.35",
    "TriplePointPressure": "161.196",
    "MolecularWeight": "88.14818",
    "LiquidVolumeAtNormalBoilingPoint": "0.1095",
    "AcentricityFactor": "0.478",
    "RadiusOfGyration": "3.359E-10",
    "SolubilityParameter": "20840",
    "DipoleMoment": "5.67E-30",
    "VanDerWaalsVolume": "0.06261",
    "VanDerWaalsArea": "9.17E+08",
    "HeatOfFormation": "-3.297E+08",
    "GibbsEnergyOfFormation": "-1.652E+08",
    "AbsEntropy": "362800",
    "HeatOfFusionAtMeltingPoint": "4456000",
    "MatthiasCopemanC1": "0.78274",
    "HeatOfCombustion": "-3.0391E+09",
    "SolidDensity": {
        "eqno": "2",
        "A": "12.041",
        "B": "-0.0051748",
        "Tmin": "105.74",
        "Tmax": "264.35"
    },
    "LiquidDensity": {
        "eqno": "105",
        "A": "0.71131",
        "B": "0.24603",
        "C": "545",
        "D": "0.25077",
        "Tmin": "264.35",
        "Tmax": "529"
    },
    "VaporPressure": {
        "eqno": "101",
        "A": "111.96",
        "B": "-9620.4",
        "C": "-12.673",
        "D": "0.0000022964",
        "E": "2",
        "Tmin": "264.35",
        "Tmax": "543.7"
    },
    "HeatOfVaporization": {
        "eqno": "106",
        "A": "1.022286E+08",
        "B": "1.245977",
        "C": "-0.515176",
        "D": "-0.350588",
        "E": "0.262112",
        "Tmin": "264.35",
        "Tmax": "543.7"
    },
    "SolidHeatCapacityCp": {
        "eqno": "100",
        "A": "-3330500",
        "B": "79184",
        "C": "-676.61",
        "D": "2.5428",
        "E": "-0.0035268",
        "Tmin": "152.5",
        "Tmax": "214.3"
    },
    "LiquidHeatCapacityCp": {
        "eqno": "16",
        "A": "145240",
        "B": "-80.948",
        "C": "10.283",
        "D": "0.0042992",
        "E": "0.0000021924",
        "Tmin": "264.35",
        "Tmax": "375.15"
    },
    "IdealGasHeatCapacityCp": {
        "eqno": "16",
        "A": "74328",
        "B": "-529.61",
        "C": "12.79",
        "D": "0.000073612",
        "E": "-9.0525E-09",
        "Tmin": "273",
        "Tmax": "1200.15"
    },
    "SecondVirialCoefficient": {
        "eqno": "104",
        "A": "0.2317",
        "B": "-245.23",
        "C": "-25.84",
        "D": "30078",
        "E": "-127780",
        "Tmin": "271.85",
        "Tmax": "1500"
    },
    "LiquidViscosity": {
        "eqno": "101",
        "A": "-783.84",
        "B": "31606",
        "C": "120.39",
        "D": "-0.00015466",
        "E": "2",
        "Tmin": "263.15",
        "Tmax": "434.96"
    },
    "VaporViscosity": {
        "eqno": "102",
        "A": "1.8945E-07",
        "B": "0.71394",
        "C": "173.97",
        "D": "-1855.4",
        "Tmin": "264.35",
        "Tmax": "1000"
    },
    "LiquidThermalConductivity": {
        "eqno": "16",
        "A": "0.052544",
        "B": "-120.78",
        "C": "-0.20746",
        "D": "-0.0081579",
        "E": "0.0000039201",
        "Tmin": "163.55",
        "Tmax": "433.55"
    },
    "VaporThermalConductivity": {
        "eqno": "102",
        "A": "1156.2",
        "B": "0.93842",
        "C": "5.9829E+09",
        "D": "-1.5337E+11",
        "Tmin": "264.35",
        "Tmax": "1000"
    },
    "SurfaceTension": {
        "eqno": "16",
        "A": "-0.004975",
        "B": "709.64",
        "C": "-10.143",
        "D": "0.02288",
        "E": "-0.000029901",
        "Tmin": "264.35",
        "Tmax": "543.7"
    },
    "RPPHeatCapacityCp": {
        "eqno": "100",
        "A": "35603",
        "B": "226.55",
        "C": "0.55283",
        "D": "-0.00088824",
        "E": "3.7199E-07",
        "Tmin": "298",
        "Tmax": "1000"
    },
    "AntoineVaporPressure": {
        "eqno": "10",
        "A": "20.923",
        "B": "2458.2",
        "C": "-113.51",
        "Tmin": "328.15",
        "Tmax": "484.89"
    },
    "LiquidViscosityRPS": {
        "eqno": "13",
        "A": "19.92",
        "B": "-0.12833",
        "C": "0.0001442",
        "Tmin": "263.15",
        "Tmax": "434.96"
    },
    "COSTALDVolume": "0.335173",
    "DiameterLJ": "6.161351E-10",
    "EnergyLJ": "319.315",
    "RacketParameter": "0.264615",
    "FullerVolume": "113.33",
    "MatthiasCopemanC2": "3.08387",
    "Parachor": "0.0428",
    "SpecificGravity": "0.813536",
    "Charge": "0",
    "CostaldAcentricFactor": "0.478",
    "WilsonVolume": "0.1095",
    "UniquacR": "4.5972",
    "UniquacQ": "4.284",
    "MatthiasCopemanC3": "-4.0988",
    "ChaoSeaderAcentricFactor": "0.478",
    "ChaoSeaderSolubilityParameter": "20840",
    "ChaoSeaderLiquidVolume": "0.1095",
    "UnifacVLE": {
        "group": "1"
    },
    "UnifacLLE": {
        "group": "1"
    },
    "Asog": {
        "group": "1"
    },
    "GCmethod": {
        "group": "1"
    },
    "Umr": {
        "group": "1"
    },
    "ModifiedUnifac": {
        "group": "1"
    },
    "CAS": "75-85-4",
    "Smiles": "CCC(C)(C)O"
}