{
    "LibraryIndex": "86",
    "CompoundID": "2-methylnonane",
    "StructureFormula": "(CH3)2CH(CH2)6CH3",
    "Family": "2",
    "CriticalTemperature": "621",
    "CriticalPressure": "2050000",
    "CriticalVolume": "0.601",
    "CriticalCompressibility": "0.244",
    "NormalBoilingPointTemperature": "440.15",
    "NormalMeltingPointTemperature": "198.5",
    "TriplePointTemperature": "198.5",
    "TriplePointPressure": "0.00248675",
    "MolecularWeight": "142.2817",
    "LiquidVolumeAtNormalBoilingPoint": "0.196826",
    "AcentricityFactor": "0.472342",
    "RadiusOfGyration": "5.429E-10",
    "SolubilityParameter": "15380",
    "DipoleMoment": "0",
    "VanDerWaalsVolume": "0.10917",
    "VanDerWaalsArea": "1.503E+09",
    "HeatOfFormation": "-2.5652E+08",
    "GibbsEnergyOfFormation": "2.841E+07",
    "AbsEntropy": "538020",
    "HeatOfFusionAtMeltingPoint": "1.75E+07",
    "HeatOfCombustion": "-6.2888E+09",
    "SolidDensity": {
        "eqno": "2",
        "A": "7.0875",
        "B": "-0.0039745",
        "C": "0",
        "D": "0",
        "E": "0",
        "Tmin": "79.4",
        "Tmax": "198.5"
    },
    "LiquidDensity": {
        "eqno": "105",
        "A": "0.2243",
        "B": "0.18661",
        "C": "621",
        "D": "0.23259",
        "Tmin": "198.5",
        "Tmax": "588.34"
    },
    "VaporPressure": {
        "eqno": "101",
        "A": "133.13",
        "B": "-10462",
        "C": "-16.388",
        "D": "0.0000099287",
        "E": "2",
        "Tmin": "198.5",
        "Tmax": "610"
    },
    "HeatOfVaporization": {
        "eqno": "106",
        "A": "7.023987E+07",
        "B": "-0.879246",
        "C": "6.371272",
        "D": "-9.404583",
        "E": "4.418702",
        "Tmin": "198.5",
        "Tmax": "610"
    },
    "SolidHeatCapacityCp": {
        "eqno": "100",
        "A": "581370",
        "B": "-18844",
        "C": "260.35",
        "D": "-1.4888",
        "E": "0.0031062",
        "Tmin": "80",
        "Tmax": "185"
    },
    "LiquidHeatCapacityCp": {
        "eqno": "16",
        "A": "-52606",
        "B": "80.981",
        "C": "11.786",
        "D": "0.0026831",
        "E": "-6.0448E-07",
        "Tmin": "198.5",
        "Tmax": "580"
    },
    "IdealGasHeatCapacityCp": {
        "eqno": "16",
        "A": "137030",
        "B": "-599.28",
        "C": "13.509",
        "D": "0.0000018563",
        "E": "-1.0781E-08",
        "Tmin": "150",
        "Tmax": "1500"
    },
    "SecondVirialCoefficient": {
        "eqno": "104",
        "A": "0.34066",
        "B": "-433.78",
        "C": "-97.746",
        "D": "-34416",
        "E": "59442",
        "Tmin": "305",
        "Tmax": "1500"
    },
    "LiquidViscosity": {
        "eqno": "101",
        "A": "-3.1519",
        "B": "949.54",
        "C": "-1.2725",
        "D": "0.0000012986",
        "E": "2",
        "Tmin": "198.5",
        "Tmax": "621"
    },
    "VaporViscosity": {
        "eqno": "102",
        "A": "9.2127E-07",
        "B": "0.44292",
        "C": "352.44",
        "D": "-1163.9",
        "Tmin": "198.5",
        "Tmax": "1000"
    },
    "LiquidThermalConductivity": {
        "eqno": "16",
        "A": "-0.16513",
        "B": "15.121",
        "C": "-1.1582",
        "D": "-0.00011252",
        "E": "-0.0000008534",
        "Tmin": "198.5",
        "Tmax": "488"
    },
    "VaporThermalConductivity": {
        "eqno": "102",
        "A": "0.000030641",
        "B": "1.1437",
        "C": "-171.78",
        "D": "168770",
        "Tmin": "198.5",
        "Tmax": "1000"
    },
    "SurfaceTension": {
        "eqno": "16",
        "A": "-0.013266",
        "B": "8.6972",
        "C": "-2.8018",
        "D": "-0.0012779",
        "E": "-0.0000019818",
        "Tmin": "198.5",
        "Tmax": "610"
    },
    "RPPHeatCapacityCp": {
        "eqno": "4",
        "A": "12286",
        "B": "883.31",
        "C": "-0.42859",
        "D": "0.000072456",
        "Tmin": "150",
        "Tmax": "1500"
    },
    "AntoineVaporPressure": {
        "eqno": "10",
        "A": "20.901",
        "B": "3427.2",
        "C": "-74.62",
        "Tmin": "375.15",
        "Tmax": "545.03"
    },
    "LiquidViscosityRPS": {
        "eqno": "12",
        "A": "-3.382",
        "B": "-0.011976",
        "Tmin": "198.5",
        "Tmax": "473.15"
    },
    "COSTALDVolume": "0.616046",
    "DiameterLJ": "8.557272E-10",
    "EnergyLJ": "252.7017",
    "RacketParameter": "0.244",
    "FullerVolume": "209.82",
    "Parachor": "0.0765141",
    "SpecificGravity": "0.73091",
    "Charge": "0",
    "CostaldAcentricFactor": "0.472342",
    "WilsonVolume": "0.196826",
    "UniquacR": "7.196599",
    "UniquacQ": "6.012",
    "ChaoSeaderAcentricFactor": "0.472342",
    "ChaoSeaderSolubilityParameter": "15380",
    "ChaoSeaderLiquidVolume": "0.196826",
    "UnifacVLE": {
        "group": "1"
    },
    "UnifacLLE": {
        "group": "1"
    },
    "Asog": {
        "group": "1"
    },
    "GCmethod": {
        "group": "1"
    },
    "Umr": {
        "group": "1"
    },
    "ModifiedUnifac": {
        "group": "1"
    },
    "CAS": "871-83-0",
    "Smiles": "CC(C)CCCCCCC"
}