{
    "LibraryIndex": "12",
    "CompoundID": "2-methylpentane",
    "StructureFormula": "CH3CH2CH2CH(CH3)2",
    "Family": "2",
    "CriticalTemperature": "497.5",
    "CriticalPressure": "3010000",
    "CriticalVolume": "0.3667",
    "CriticalCompressibility": "0.267",
    "NormalBoilingPointTemperature": "333.4",
    "NormalMeltingPointTemperature": "119.55",
    "TriplePointTemperature": "119.55",
    "TriplePointPressure": "0.0000206558",
    "MolecularWeight": "86.17536",
    "LiquidVolumeAtNormalBoilingPoint": "0.13289",
    "AcentricityFactor": "0.278",
    "RadiusOfGyration": "3.784E-10",
    "SolubilityParameter": "14400",
    "DipoleMoment": "0",
    "VanDerWaalsVolume": "0.06825",
    "VanDerWaalsArea": "9.63E+08",
    "HeatOfFormation": "-1.7455E+08",
    "GibbsEnergyOfFormation": "-5338000",
    "AbsEntropy": "380890",
    "HeatOfFusionAtMeltingPoint": "6268000",
    "MatthiasCopemanC1": "0.95879",
    "HeatOfCombustion": "-3.84915E+09",
    "SolidDensity": {
        "eqno": "2",
        "A": "11.67",
        "B": "-0.010749",
        "Tmin": "47.82",
        "Tmax": "119.55"
    },
    "LiquidDensity": {
        "eqno": "105",
        "A": "0.657",
        "B": "0.25467",
        "C": "497.71",
        "D": "0.26808",
        "Tmin": "119.55",
        "Tmax": "497.7"
    },
    "VaporPressure": {
        "eqno": "101",
        "A": "77.6873",
        "B": "-5802.911",
        "C": "-8.543267",
        "D": "7.871718E-06",
        "E": "2",
        "Tmin": "119.55",
        "Tmax": "497.7"
    },
    "HeatOfVaporization": {
        "eqno": "106",
        "A": "4.724E+07",
        "B": "0.784961",
        "C": "-0.571271",
        "D": "0.114935",
        "E": "0.0796185",
        "Tmin": "119.55",
        "Tmax": "477.8"
    },
    "SolidHeatCapacityCp": {
        "eqno": "100",
        "A": "-16692",
        "B": "1658.2",
        "C": "-10.279",
        "D": "0.040384",
        "E": "-0.000049521",
        "Tmin": "18",
        "Tmax": "119.53"
    },
    "LiquidHeatCapacityCp": {
        "eqno": "16",
        "A": "137510",
        "B": "-55.266",
        "C": "8.2006",
        "D": "0.013273",
        "E": "-0.00001165",
        "Tmin": "103.56",
        "Tmax": "333.41"
    },
    "IdealGasHeatCapacityCp": {
        "eqno": "16",
        "A": "70761",
        "B": "-504.8",
        "C": "12.795",
        "D": "0.00029839",
        "E": "-9.4564E-08",
        "Tmin": "200",
        "Tmax": "1500"
    },
    "SecondVirialCoefficient": {
        "eqno": "104",
        "A": "0.20379",
        "B": "-202.65",
        "C": "-31.838",
        "D": "492.86",
        "E": "-3834.6",
        "Tmin": "248.73",
        "Tmax": "1989.8"
    },
    "LiquidViscosity": {
        "eqno": "101",
        "A": "-12.416",
        "B": "938.41",
        "C": "0.18259",
        "D": "4.2586E-07",
        "E": "2",
        "Tmin": "119.55",
        "Tmax": "398"
    },
    "VaporViscosity": {
        "eqno": "102",
        "A": "0.0000020458",
        "B": "0.38326",
        "C": "542.64",
        "D": "-1147.6",
        "Tmin": "119.55",
        "Tmax": "1000"
    },
    "LiquidThermalConductivity": {
        "eqno": "16",
        "A": "-0.099248",
        "B": "3.6931",
        "C": "-1.2881",
        "D": "-0.00063949",
        "E": "-0.0000011122",
        "Tmin": "119.55",
        "Tmax": "389.25"
    },
    "VaporThermalConductivity": {
        "eqno": "102",
        "A": "0.000056887",
        "B": "1.0953",
        "C": "-66.761",
        "D": "139530",
        "Tmin": "119.55",
        "Tmax": "1000"
    },
    "SurfaceTension": {
        "eqno": "16",
        "A": "-0.015522",
        "B": "7.9529",
        "C": "-2.8734",
        "D": "-0.0008781",
        "E": "-0.0000036183",
        "Tmin": "119.55",
        "Tmax": "477.8"
    },
    "RPPHeatCapacityCp": {
        "eqno": "100",
        "A": "17427",
        "B": "385.95",
        "C": "0.25974",
        "D": "-0.0005678",
        "E": "2.4129E-07",
        "Tmin": "200",
        "Tmax": "1000"
    },
    "AntoineVaporPressure": {
        "eqno": "10",
        "A": "20.737",
        "B": "2653.5",
        "C": "-45.343",
        "Tmin": "298.67",
        "Tmax": "437.99"
    },
    "LiquidViscosityRPS": {
        "eqno": "13",
        "A": "2.1171",
        "B": "-0.062164",
        "C": "0.00009219",
        "Tmin": "119.55",
        "Tmax": "333.41"
    },
    "COSTALDVolume": "0.3677",
    "DiameterLJ": "6.51431E-10",
    "EnergyLJ": "279.9927",
    "RacketParameter": "0.2581",
    "FullerVolume": "127.74",
    "MatthiasCopemanC2": "-0.45339",
    "Parachor": "0.048",
    "SpecificGravity": "0.656507",
    "Charge": "0",
    "CostaldAcentricFactor": "0.2791",
    "WilsonVolume": "0.132931",
    "UniquacR": "4.499",
    "UniquacQ": "3.852",
    "ApiSrkS2": "-0.003898",
    "MatthiasCopemanC3": "0.85782",
    "ChaoSeaderAcentricFactor": "0.2791",
    "ChaoSeaderSolubilityParameter": "14417.6",
    "ChaoSeaderLiquidVolume": "0.132931",
    "UnifacVLE": {
        "group": "1"
    },
    "UnifacLLE": {
        "group": "1"
    },
    "Asog": {
        "group": "1"
    },
    "GCmethod": {
        "group": "1"
    },
    "Umr": {
        "group": "1"
    },
    "ModifiedUnifac": {
        "group": "1"
    },
    "CAS": "107-83-5",
    "Smiles": "CC(C)CCC"
}