{
    "LibraryIndex": "212",
    "CompoundID": "2-methyl-1-butene",
    "StructureFormula": "CH2C(CH3)CH2CH3",
    "Family": "11",
    "CriticalTemperature": "465",
    "CriticalPressure": "3447000",
    "CriticalVolume": "0.292",
    "CriticalCompressibility": "0.26",
    "NormalBoilingPointTemperature": "304.305",
    "NormalMeltingPointTemperature": "135.578",
    "TriplePointTemperature": "135.578",
    "TriplePointPressure": "0.0205382",
    "MolecularWeight": "70.1329",
    "LiquidVolumeAtNormalBoilingPoint": "0.10872",
    "AcentricityFactor": "0.234056",
    "RadiusOfGyration": "3.287E-10",
    "SolubilityParameter": "14700",
    "DipoleMoment": "1.7E-30",
    "VanDerWaalsVolume": "0.05452",
    "VanDerWaalsArea": "8.06E+08",
    "HeatOfFormation": "-3.53E+07",
    "GibbsEnergyOfFormation": "6.668E+07",
    "AbsEntropy": "339500",
    "HeatOfFusionAtMeltingPoint": "7910700",
    "MatthiasCopemanC1": "0.83569",
    "HeatOfCombustion": "-3.1159E+09",
    "SolidDensity": {
        "eqno": "2",
        "A": "14.346",
        "B": "-0.01138",
        "Tmin": "54.23",
        "Tmax": "135.58"
    },
    "LiquidDensity": {
        "eqno": "105",
        "A": "0.91622",
        "B": "0.26752",
        "C": "465",
        "D": "0.28165",
        "Tmin": "135.58",
        "Tmax": "465"
    },
    "VaporPressure": {
        "eqno": "101",
        "A": "77.29304",
        "B": "-5304.146",
        "C": "-8.607604",
        "D": "9.513458E-06",
        "E": "2",
        "Tmin": "135.58",
        "Tmax": "465"
    },
    "HeatOfVaporization": {
        "eqno": "106",
        "A": "4.6374E+07",
        "B": "1.4214",
        "C": "-2.5789",
        "D": "2.5516",
        "E": "-0.95454",
        "Tmin": "135.58",
        "Tmax": "465"
    },
    "SolidHeatCapacityCp": {
        "eqno": "100",
        "A": "-17830",
        "B": "1684.7",
        "C": "-14.234",
        "D": "0.073506",
        "E": "-0.00014133",
        "Tmin": "20",
        "Tmax": "135.6"
    },
    "LiquidHeatCapacityCp": {
        "eqno": "16",
        "A": "121560",
        "B": "527.31",
        "C": "1.2291",
        "D": "0.036295",
        "E": "-0.000037525",
        "Tmin": "135.58",
        "Tmax": "304.31"
    },
    "IdealGasHeatCapacityCp": {
        "eqno": "16",
        "A": "81218",
        "B": "-803.24",
        "C": "13.077",
        "D": "-0.00034159",
        "E": "9.7536E-08",
        "Tmin": "200",
        "Tmax": "1500"
    },
    "SecondVirialCoefficient": {
        "eqno": "104",
        "A": "0.16678",
        "B": "-164.7",
        "C": "-17.388",
        "D": "-73.693",
        "E": "-374.88",
        "Tmin": "232.5",
        "Tmax": "1860"
    },
    "LiquidViscosity": {
        "eqno": "101",
        "A": "-10.065",
        "B": "690.04",
        "C": "-0.13044",
        "D": "0.0000004745",
        "E": "2",
        "Tmin": "135.58",
        "Tmax": "373"
    },
    "VaporViscosity": {
        "eqno": "102",
        "A": "5.0873E-07",
        "B": "0.55006",
        "C": "197.77",
        "D": "-68.455",
        "Tmin": "135.58",
        "Tmax": "1000"
    },
    "LiquidThermalConductivity": {
        "eqno": "16",
        "A": "-0.024046",
        "B": "2.4654",
        "C": "-1.5931",
        "D": "-0.00074325",
        "E": "-0.0000024745",
        "Tmin": "135.58",
        "Tmax": "304.3"
    },
    "VaporThermalConductivity": {
        "eqno": "102",
        "A": "0.00018088",
        "B": "0.94101",
        "C": "77.857",
        "D": "153680",
        "Tmin": "135.578",
        "Tmax": "1000"
    },
    "SurfaceTension": {
        "eqno": "16",
        "A": "-0.0087828",
        "B": "42.635",
        "C": "-3.4174",
        "D": "0.001427",
        "E": "-0.0000096911",
        "Tmin": "135.58",
        "Tmax": "465"
    },
    "RPPHeatCapacityCp": {
        "eqno": "4",
        "A": "-289.0224",
        "B": "434.7176",
        "C": "-0.232806",
        "D": "0.0000469361",
        "Tmin": "200",
        "Tmax": "1200"
    },
    "AntoineVaporPressure": {
        "eqno": "10",
        "A": "20.951",
        "B": "2552.6",
        "C": "-33.481",
        "Tmin": "280.07",
        "Tmax": "412.99"
    },
    "LiquidViscosityRPS": {
        "eqno": "13",
        "A": "-0.24348",
        "B": "-0.050824",
        "C": "0.000078622",
        "Tmin": "135.58",
        "Tmax": "304.3"
    },
    "COSTALDVolume": "0.2887",
    "DiameterLJ": "6.233585E-10",
    "EnergyLJ": "237.8319",
    "RacketParameter": "0.270022",
    "FullerVolume": "102.6",
    "MatthiasCopemanC2": "0.06763",
    "Parachor": "0.0387",
    "SpecificGravity": "0.65438",
    "Charge": "0",
    "CostaldAcentricFactor": "0.23544",
    "WilsonVolume": "0.10868",
    "UniquacR": "3.5939",
    "UniquacQ": "3.224",
    "ApiSrkS2": "-0.00351",
    "MatthiasCopemanC3": "-0.08406",
    "ChaoSeaderAcentricFactor": "0.228663",
    "ChaoSeaderSolubilityParameter": "14695.4",
    "ChaoSeaderLiquidVolume": "0.10868",
    "UnifacVLE": {
        "group": "1"
    },
    "UnifacLLE": {
        "group": "1"
    },
    "Asog": {
        "group": "1"
    },
    "GCmethod": {
        "group": "1"
    },
    "Umr": {
        "group": "1"
    },
    "ModifiedUnifac": {
        "group": "1"
    },
    "CAS": "563-46-2",
    "Smiles": "C=C(C)CC"
}