{
    "LibraryIndex": "221",
    "CompoundID": "2-methyl-1-pentene",
    "StructureFormula": "CH2C(CH3)CH2CH2CH3",
    "Family": "11",
    "CriticalTemperature": "507",
    "CriticalPressure": "3160000",
    "CriticalVolume": "0.359",
    "CriticalCompressibility": "0.261",
    "NormalBoilingPointTemperature": "335.26",
    "NormalMeltingPointTemperature": "137.43",
    "TriplePointTemperature": "137.42",
    "TriplePointPressure": "0.000805463",
    "MolecularWeight": "84.15948",
    "LiquidVolumeAtNormalBoilingPoint": "0.124649",
    "AcentricityFactor": "0.261138",
    "RadiusOfGyration": "3.704E-10",
    "SolubilityParameter": "15070",
    "DipoleMoment": "1.89E-30",
    "VanDerWaalsVolume": "0.06475",
    "VanDerWaalsArea": "9.41E+08",
    "HeatOfFormation": "-5.22581E+07",
    "GibbsEnergyOfFormation": "7.2969E+07",
    "AbsEntropy": "374000",
    "HeatOfFusionAtMeltingPoint": "7029120",
    "MatthiasCopemanC1": "0.94792",
    "HeatOfCombustion": "-3.72209E+09",
    "SolidDensity": {
        "eqno": "2",
        "A": "12.183",
        "B": "-0.009706",
        "C": "0",
        "D": "0",
        "E": "0",
        "Tmin": "54.97",
        "Tmax": "137.42"
    },
    "LiquidDensity": {
        "eqno": "105",
        "A": "0.13372",
        "B": "0.11276",
        "C": "507",
        "D": "0.1472",
        "Tmin": "137.42",
        "Tmax": "505"
    },
    "VaporPressure": {
        "eqno": "101",
        "A": "85.161",
        "B": "-6171.1",
        "C": "-9.6632",
        "D": "0.0000085639",
        "E": "2",
        "Tmin": "137.42",
        "Tmax": "505"
    },
    "HeatOfVaporization": {
        "eqno": "106",
        "A": "5.397303E+07",
        "B": "1.23932",
        "C": "-1.433928",
        "D": "0.797889",
        "E": "-0.142823",
        "Tmin": "137.42",
        "Tmax": "505"
    },
    "SolidHeatCapacityCp": {
        "eqno": "1",
        "A": "156060",
        "Tmin": "0",
        "Tmax": "507"
    },
    "LiquidHeatCapacityCp": {
        "eqno": "16",
        "A": "173630",
        "B": "-41311",
        "C": "386.78",
        "D": "-1.1602",
        "E": "0.0012063",
        "Tmin": "177.45",
        "Tmax": "335.25"
    },
    "IdealGasHeatCapacityCp": {
        "eqno": "16",
        "A": "92049",
        "B": "-683.66",
        "C": "13.009",
        "D": "-0.000089454",
        "E": "1.0969E-08",
        "Tmin": "200",
        "Tmax": "1500"
    },
    "SecondVirialCoefficient": {
        "eqno": "104",
        "A": "0.20427",
        "B": "-211.93",
        "C": "-28.323",
        "D": "-2202.1",
        "E": "2802.7",
        "Tmin": "253.58",
        "Tmax": "2000"
    },
    "LiquidViscosity": {
        "eqno": "101",
        "A": "-11.406",
        "B": "797.71",
        "C": "0.099228",
        "D": "-5.3373E-07",
        "E": "2",
        "Tmin": "137.42",
        "Tmax": "405.6"
    },
    "VaporViscosity": {
        "eqno": "102",
        "A": "6.3076E-07",
        "B": "0.52447",
        "C": "272.22",
        "D": "-3046.8",
        "Tmin": "137.42",
        "Tmax": "1000"
    },
    "LiquidThermalConductivity": {
        "eqno": "16",
        "A": "-0.026056",
        "B": "4.3913",
        "C": "-1.6749",
        "D": "-0.00048682",
        "E": "-0.0000023385",
        "Tmin": "137.42",
        "Tmax": "335.25"
    },
    "VaporThermalConductivity": {
        "eqno": "102",
        "A": "0.000074858",
        "B": "1.0485",
        "C": "-32.169",
        "D": "140340",
        "Tmin": "137.42",
        "Tmax": "1000"
    },
    "SurfaceTension": {
        "eqno": "16",
        "A": "-0.010227",
        "B": "29.367",
        "C": "-3.1888",
        "D": "0.00017808",
        "E": "-0.0000061262",
        "Tmin": "137.42",
        "Tmax": "505"
    },
    "RPPHeatCapacityCp": {
        "eqno": "4",
        "A": "12977",
        "B": "480.34",
        "C": "-0.23191",
        "D": "0.000039315",
        "Tmin": "200",
        "Tmax": "1500"
    },
    "AntoineVaporPressure": {
        "eqno": "10",
        "A": "20.723",
        "B": "2655.1",
        "C": "-46.569",
        "Tmin": "305.25",
        "Tmax": "446.96"
    },
    "LiquidViscosityRPS": {
        "eqno": "12",
        "A": "-3.556",
        "B": "-0.015605",
        "Tmin": "137.42",
        "Tmax": "335.25"
    },
    "COSTALDVolume": "0.34716",
    "DiameterLJ": "6.647237E-10",
    "EnergyLJ": "262.9221",
    "RacketParameter": "0.261",
    "FullerVolume": "123.12",
    "MatthiasCopemanC2": "-0.45874",
    "Parachor": "0.0451328",
    "SpecificGravity": "0.686845",
    "Charge": "0",
    "CostaldAcentricFactor": "0.261138",
    "WilsonVolume": "0.124649",
    "UniquacR": "4.2689",
    "UniquacQ": "3.64",
    "ApiSrkS2": "0.00519",
    "MatthiasCopemanC3": "0.95865",
    "ChaoSeaderAcentricFactor": "0.261138",
    "ChaoSeaderSolubilityParameter": "15070",
    "ChaoSeaderLiquidVolume": "0.124649",
    "UnifacVLE": {
        "group": "1"
    },
    "UnifacLLE": {
        "group": "1"
    },
    "Asog": {
        "group": "1"
    },
    "GCmethod": {
        "group": "1"
    },
    "Umr": {
        "group": "1"
    },
    "ModifiedUnifac": {
        "group": "1"
    },
    "CAS": "763-29-1",
    "Smiles": "C=C(C)CCC"
}