{
    "LibraryIndex": "38",
    "CompoundID": "2-methyl-3-ethylpentane",
    "StructureFormula": "CH3CH(CH3)CH(CH2CH3)CH2CH3",
    "Family": "4",
    "CriticalTemperature": "567",
    "CriticalPressure": "2700000",
    "CriticalVolume": "0.4453",
    "CriticalCompressibility": "0.254",
    "NormalBoilingPointTemperature": "388.81",
    "NormalMeltingPointTemperature": "158.2",
    "TriplePointTemperature": "158.2",
    "TriplePointPressure": "0.000447428",
    "MolecularWeight": "114.2285",
    "LiquidVolumeAtNormalBoilingPoint": "0.15972",
    "AcentricityFactor": "0.331",
    "RadiusOfGyration": "4.181E-10",
    "SolubilityParameter": "15140",
    "DipoleMoment": "0",
    "VanDerWaalsVolume": "0.0886999",
    "VanDerWaalsArea": "1.232E+09",
    "HeatOfFormation": "-2.11208E+08",
    "GibbsEnergyOfFormation": "1.87861E+07",
    "AbsEntropy": "443760",
    "HeatOfFusionAtMeltingPoint": "1.13386E+07",
    "MatthiasCopemanC1": "0.97631",
    "HeatOfCombustion": "-5.07477E+09",
    "SolidDensity": {
        "eqno": "2",
        "A": "8.9908",
        "B": "-0.0063143",
        "C": "0",
        "D": "0",
        "E": "0",
        "Tmin": "63.28",
        "Tmax": "158.2"
    },
    "LiquidDensity": {
        "eqno": "105",
        "A": "0.54567",
        "B": "0.26412",
        "C": "567.03",
        "D": "0.24308",
        "Tmin": "158.2",
        "Tmax": "567.02"
    },
    "VaporPressure": {
        "eqno": "101",
        "A": "92.12933",
        "B": "-7403.468",
        "C": "-10.51119",
        "D": "7.396006E-06",
        "E": "2",
        "Tmin": "158.2",
        "Tmax": "567.1"
    },
    "HeatOfVaporization": {
        "eqno": "106",
        "A": "5.9697E+07",
        "B": "0.73134",
        "C": "0.033175",
        "D": "-0.91459",
        "E": "0.58962",
        "Tmin": "158.2",
        "Tmax": "545.58"
    },
    "SolidHeatCapacityCp": {
        "eqno": "1",
        "A": "223200",
        "Tmin": "0",
        "Tmax": "567"
    },
    "LiquidHeatCapacityCp": {
        "eqno": "16",
        "A": "11076",
        "B": "-131.1",
        "C": "12.479",
        "D": "0.0013888",
        "E": "-7.3844E-07",
        "Tmin": "173.57",
        "Tmax": "388.8"
    },
    "IdealGasHeatCapacityCp": {
        "eqno": "16",
        "A": "86476",
        "B": "-441",
        "C": "12.894",
        "D": "0.00051253",
        "E": "-1.9205E-07",
        "Tmin": "200",
        "Tmax": "1500"
    },
    "SecondVirialCoefficient": {
        "eqno": "104",
        "A": "0.2727",
        "B": "-363.94",
        "C": "-51.79",
        "D": "-4127.4",
        "E": "2402.8",
        "Tmin": "283.5",
        "Tmax": "1813.5"
    },
    "LiquidViscosity": {
        "eqno": "101",
        "A": "-10.931",
        "B": "1059.8",
        "C": "-0.066598",
        "D": "1.3283E-07",
        "E": "2",
        "Tmin": "158.2",
        "Tmax": "400"
    },
    "VaporViscosity": {
        "eqno": "102",
        "A": "5.6587E-07",
        "B": "0.52506",
        "C": "255.1",
        "D": "-76.481",
        "Tmin": "388.8",
        "Tmax": "1000"
    },
    "LiquidThermalConductivity": {
        "eqno": "16",
        "A": "-0.069311",
        "B": "4.0311",
        "C": "-1.5221",
        "D": "-0.00039448",
        "E": "-0.0000012799",
        "Tmin": "158.2",
        "Tmax": "388.8"
    },
    "VaporThermalConductivity": {
        "eqno": "102",
        "A": "0.000026967",
        "B": "1.1845",
        "C": "-133.92",
        "D": "140280",
        "Tmin": "158.2",
        "Tmax": "1000"
    },
    "SurfaceTension": {
        "eqno": "16",
        "A": "-0.013529",
        "B": "15.88",
        "C": "-2.9699",
        "D": "-0.00045495",
        "E": "-0.0000035111",
        "Tmin": "158.2",
        "Tmax": "545.58"
    },
    "RPPHeatCapacityCp": {
        "eqno": "100",
        "A": "-7258.5",
        "B": "791.48",
        "C": "-0.44225",
        "D": "0.000098111",
        "E": "0",
        "Tmin": "200",
        "Tmax": "1000"
    },
    "RelativeStaticPermittivity": {
        "eqno": "120",
        "A": "-1.404923",
        "B": "-950",
        "C": "-5.7",
        "Tmin": "274.15",
        "Tmax": "444.15"
    },
    "AntoineVaporPressure": {
        "eqno": "10",
        "A": "20.899",
        "B": "3165.8",
        "C": "-51.044",
        "Tmin": "343.26",
        "Tmax": "503.21"
    },
    "LiquidViscosityRPS": {
        "eqno": "12",
        "A": "-2.6297",
        "B": "-0.016398",
        "Tmin": "158.2",
        "Tmax": "388.8"
    },
    "COSTALDVolume": "0.486848",
    "DiameterLJ": "7.378964E-10",
    "EnergyLJ": "266.623",
    "RacketParameter": "0.254",
    "FullerVolume": "168.78",
    "MatthiasCopemanC2": "0",
    "Parachor": "0.0599464",
    "SpecificGravity": "0.723932",
    "Charge": "0",
    "CostaldAcentricFactor": "0.331",
    "WilsonVolume": "0.15972",
    "UniquacR": "5.847",
    "UniquacQ": "4.928",
    "ApiSrkS2": "-0.002499",
    "MatthiasCopemanC3": "0",
    "ChaoSeaderAcentricFactor": "0.331",
    "ChaoSeaderSolubilityParameter": "15140",
    "ChaoSeaderLiquidVolume": "0.15972",
    "UnifacVLE": {
        "group": "2"
    },
    "UnifacLLE": {
        "group": "2"
    },
    "Asog": {
        "group": "2"
    },
    "GCmethod": {
        "group": "2"
    },
    "Umr": {
        "group": "2"
    },
    "ModifiedUnifac": {
        "group": "2"
    },
    "CAS": "609-26-7",
    "Smiles": "CC(C)C(CC)CC"
}