{
    "LibraryIndex": "1763",
    "CompoundID": "2-nitropropane",
    "StructureFormula": "CH3CH(NO2)CH3",
    "Family": "39",
    "CriticalTemperature": "595",
    "CriticalPressure": "4450000",
    "CriticalVolume": "0.288",
    "CriticalCompressibility": "0.26",
    "NormalBoilingPointTemperature": "393.4",
    "NormalMeltingPointTemperature": "181.83",
    "TriplePointTemperature": "181.83",
    "TriplePointPressure": "0.021584",
    "MolecularWeight": "89.09318",
    "LiquidVolumeAtNormalBoilingPoint": "0.0905535",
    "AcentricityFactor": "0.383568",
    "RadiusOfGyration": "3.273E-10",
    "SolubilityParameter": "20530",
    "DipoleMoment": "1.24E-29",
    "VanDerWaalsVolume": "0.05092",
    "VanDerWaalsArea": "7.36E+08",
    "HeatOfFormation": "-1.39E+08",
    "GibbsEnergyOfFormation": "-1.2803E+07",
    "AbsEntropy": "347700",
    "HeatOfFusionAtMeltingPoint": "7790000",
    "HeatOfCombustion": "-1.846E+09",
    "SolidDensity": {
        "eqno": "2",
        "A": "15.679",
        "B": "-0.0096732",
        "C": "0",
        "D": "0",
        "E": "0",
        "Tmin": "72.73",
        "Tmax": "181.83"
    },
    "LiquidDensity": {
        "eqno": "105",
        "A": "0.27031",
        "B": "0.13967",
        "C": "595",
        "D": "0.17588",
        "Tmin": "181.83",
        "Tmax": "594"
    },
    "VaporPressure": {
        "eqno": "101",
        "A": "57.04038",
        "B": "-6262.318",
        "C": "-4.993807",
        "D": "1.61213E-06",
        "E": "2",
        "Tmin": "181.83",
        "Tmax": "594"
    },
    "HeatOfVaporization": {
        "eqno": "106",
        "A": "5.543435E+07",
        "B": "0.377393",
        "C": "0.18894",
        "D": "-0.0391329",
        "E": "-0.243258",
        "Tmin": "181.83",
        "Tmax": "594"
    },
    "SolidHeatCapacityCp": {
        "eqno": "1",
        "A": "131170",
        "Tmin": "0",
        "Tmax": "595"
    },
    "LiquidHeatCapacityCp": {
        "eqno": "16",
        "A": "67863",
        "B": "138.63",
        "C": "8.8679",
        "D": "0.01051",
        "E": "-0.00001051",
        "Tmin": "181.83",
        "Tmax": "393.4"
    },
    "IdealGasHeatCapacityCp": {
        "eqno": "16",
        "A": "58543",
        "B": "-558.36",
        "C": "12.559",
        "D": "0.000040137",
        "E": "-3.1383E-08",
        "Tmin": "150",
        "Tmax": "1500"
    },
    "SecondVirialCoefficient": {
        "eqno": "104",
        "A": "0.17935",
        "B": "-204.53",
        "C": "-50.86",
        "D": "-56062",
        "E": "103000",
        "Tmin": "297",
        "Tmax": "1899"
    },
    "LiquidViscosity": {
        "eqno": "101",
        "A": "-26.48",
        "B": "1441.6",
        "C": "2.6439",
        "D": "-0.0000074647",
        "E": "2",
        "Tmin": "181.83",
        "Tmax": "404"
    },
    "VaporViscosity": {
        "eqno": "102",
        "A": "0.000005644",
        "B": "0.32789",
        "C": "1291.7",
        "D": "6279.8",
        "Tmin": "181.83",
        "Tmax": "1000"
    },
    "LiquidThermalConductivity": {
        "eqno": "16",
        "A": "0.085284",
        "B": "-50.915",
        "C": "-1.467",
        "D": "-0.0035856",
        "E": "-0.000001687",
        "Tmin": "181.83",
        "Tmax": "393.4"
    },
    "VaporThermalConductivity": {
        "eqno": "102",
        "A": "0.0042281",
        "B": "0.52696",
        "C": "790.25",
        "D": "431610",
        "Tmin": "181.83",
        "Tmax": "1000"
    },
    "SurfaceTension": {
        "eqno": "16",
        "A": "-0.015626",
        "B": "18.663",
        "C": "-2.7222",
        "D": "-0.00050234",
        "E": "-0.0000033626",
        "Tmin": "181.83",
        "Tmax": "594"
    },
    "RPPHeatCapacityCp": {
        "eqno": "4",
        "A": "7449",
        "B": "381.45",
        "C": "-0.20531",
        "D": "0.000039841",
        "Tmin": "150",
        "Tmax": "1500"
    },
    "AntoineVaporPressure": {
        "eqno": "10",
        "A": "21.572",
        "B": "3562.3",
        "C": "-38.858",
        "Tmin": "363.15",
        "Tmax": "528.92"
    },
    "LiquidViscosityRPS": {
        "eqno": "12",
        "A": "-2.9011",
        "B": "-0.014208",
        "Tmin": "181.83",
        "Tmax": "393.4"
    },
    "COSTALDVolume": "0.270821",
    "DiameterLJ": "6.20499E-10",
    "EnergyLJ": "304.3226",
    "RacketParameter": "0.26",
    "FullerVolume": "80.63",
    "Parachor": "0.0372943",
    "SpecificGravity": "0.994733",
    "Charge": "0",
    "CostaldAcentricFactor": "0.383568",
    "WilsonVolume": "0.0905535",
    "UniquacR": "3.3573",
    "UniquacQ": "2.948",
    "ChaoSeaderAcentricFactor": "0.383568",
    "ChaoSeaderSolubilityParameter": "20530",
    "ChaoSeaderLiquidVolume": "0.0905535",
    "UnifacVLE": {
        "group": "1"
    },
    "UnifacLLE": {
        "group": "1"
    },
    "Asog": {
        "group": "1"
    },
    "Umr": {
        "group": "1"
    },
    "ModifiedUnifac": {
        "group": "1"
    },
    "CAS": "79-46-9",
    "Smiles": "CC(N(=O)=O)C"
}