{
    "LibraryIndex": "1060",
    "CompoundID": "2-pentanone",
    "StructureFormula": "CH3CO(CH2)2CH3",
    "Family": "26",
    "CriticalTemperature": "561.1",
    "CriticalPressure": "3690000",
    "CriticalVolume": "0.301",
    "CriticalCompressibility": "0.238",
    "NormalBoilingPointTemperature": "375.39",
    "NormalMeltingPointTemperature": "196.29",
    "TriplePointTemperature": "196.29",
    "TriplePointPressure": "0.752347",
    "MolecularWeight": "86.1323",
    "LiquidVolumeAtNormalBoilingPoint": "0.10733",
    "AcentricityFactor": "0.346",
    "RadiusOfGyration": "3.618E-10",
    "SolubilityParameter": "18290",
    "DipoleMoment": "9.07E-30",
    "VanDerWaalsVolume": "0.0595",
    "VanDerWaalsArea": "8.54E+08",
    "HeatOfFormation": "-2.592E+08",
    "GibbsEnergyOfFormation": "-1.384E+08",
    "AbsEntropy": "378600",
    "HeatOfFusionAtMeltingPoint": "1.062E+07",
    "MatthiasCopemanC1": "0.9943",
    "HeatOfCombustion": "-2.88E+09",
    "SolidDensity": {
        "eqno": "2",
        "A": "13.184",
        "B": "-0.0073973",
        "C": "0",
        "D": "0",
        "E": "0",
        "Tmin": "78.52",
        "Tmax": "196.29"
    },
    "LiquidDensity": {
        "eqno": "105",
        "A": "0.8193",
        "B": "0.25958",
        "C": "561.1",
        "D": "0.28941",
        "Tmin": "196.29",
        "Tmax": "561.08"
    },
    "VaporPressure": {
        "eqno": "101",
        "A": "92.01772",
        "B": "-7341.876",
        "C": "-10.45756",
        "D": "7.61086E-06",
        "E": "2",
        "Tmin": "196.29",
        "Tmax": "561.15"
    },
    "HeatOfVaporization": {
        "eqno": "106",
        "A": "6.074187E+07",
        "B": "1.097819",
        "C": "-1.350154",
        "D": "0.926065",
        "E": "-0.25017",
        "Tmin": "196.29",
        "Tmax": "561.08"
    },
    "SolidHeatCapacityCp": {
        "eqno": "100",
        "A": "-21075",
        "B": "1836.3",
        "C": "-11.412",
        "D": "0.033399",
        "E": "-0.0000064676",
        "Tmin": "20.74",
        "Tmax": "180"
    },
    "LiquidHeatCapacityCp": {
        "eqno": "16",
        "A": "119520",
        "B": "155.09",
        "C": "9.2758",
        "D": "0.0038398",
        "E": "0.0000015236",
        "Tmin": "196.29",
        "Tmax": "450"
    },
    "IdealGasHeatCapacityCp": {
        "eqno": "16",
        "A": "86927",
        "B": "-727.52",
        "C": "12.986",
        "D": "-0.00023161",
        "E": "6.926E-08",
        "Tmin": "200",
        "Tmax": "1500"
    },
    "SecondVirialCoefficient": {
        "eqno": "104",
        "A": "0.25359",
        "B": "-304.06",
        "C": "-23.005",
        "D": "-48839",
        "E": "104690",
        "Tmin": "280.54",
        "Tmax": "1500"
    },
    "LiquidViscosity": {
        "eqno": "101",
        "A": "-8.4812",
        "B": "921.84",
        "C": "-0.40943",
        "D": "6.8984E-07",
        "E": "2",
        "Tmin": "250",
        "Tmax": "461"
    },
    "VaporViscosity": {
        "eqno": "102",
        "A": "2.4641E-07",
        "B": "0.66525",
        "C": "208.96",
        "D": "-62.76",
        "Tmin": "196.29",
        "Tmax": "1000"
    },
    "LiquidThermalConductivity": {
        "eqno": "16",
        "A": "0.010889",
        "B": "-36.658",
        "C": "-1.2206",
        "D": "-0.0022413",
        "E": "-2.5211E-07",
        "Tmin": "196.29",
        "Tmax": "513.15"
    },
    "VaporThermalConductivity": {
        "eqno": "102",
        "A": "-0.017912",
        "B": "0.4825",
        "C": "-3887.7",
        "D": "-1296300",
        "Tmin": "196.29",
        "Tmax": "1000"
    },
    "SurfaceTension": {
        "eqno": "16",
        "A": "-0.03956",
        "B": "2.1919",
        "C": "-2.4093",
        "D": "-0.0008791",
        "E": "-0.0000010614",
        "Tmin": "196.29",
        "Tmax": "561.08"
    },
    "RPPHeatCapacityCp": {
        "eqno": "100",
        "A": "65152",
        "B": "75.254",
        "C": "0.6704",
        "D": "-0.00090187",
        "E": "3.5611E-07",
        "Tmin": "200",
        "Tmax": "1000"
    },
    "AntoineVaporPressure": {
        "eqno": "10",
        "A": "21.291",
        "B": "3150.2",
        "C": "-52.754",
        "Tmin": "339.46",
        "Tmax": "503.48"
    },
    "LiquidViscosityRPS": {
        "eqno": "12",
        "A": "-4.6033",
        "B": "-0.010188",
        "Tmin": "250",
        "Tmax": "375.46"
    },
    "COSTALDVolume": "0.317875",
    "DiameterLJ": "7.001774E-10",
    "EnergyLJ": "208.7519",
    "RacketParameter": "0.254998",
    "FullerVolume": "108.71",
    "MatthiasCopemanC2": "0",
    "Parachor": "0.042749",
    "SpecificGravity": "0.812771",
    "Charge": "0",
    "CostaldAcentricFactor": "0.346",
    "WilsonVolume": "0.10733",
    "UniquacR": "3.9223",
    "UniquacQ": "3.416",
    "MatthiasCopemanC3": "0",
    "ChaoSeaderAcentricFactor": "0.346",
    "ChaoSeaderSolubilityParameter": "18290",
    "ChaoSeaderLiquidVolume": "0.10733",
    "UnifacVLE": {
        "group": "1"
    },
    "UnifacLLE": {
        "group": "1"
    },
    "Asog": {
        "group": "1"
    },
    "Umr": {
        "group": "1"
    },
    "ModifiedUnifac": {
        "group": "1"
    },
    "CAS": "107-87-9",
    "Smiles": "CC(=O)CCC"
}