{
    "LibraryIndex": "48",
    "CompoundID": "3,3,5-trimethylheptane",
    "StructureFormula": "CH3CH2C(CH3)2CH2CH(CH3)CH2CH3",
    "Family": "4",
    "CriticalTemperature": "609.6",
    "CriticalPressure": "2320000",
    "CriticalVolume": "0.564",
    "CriticalCompressibility": "0.258",
    "NormalBoilingPointTemperature": "428.83",
    "NormalMeltingPointTemperature": "165",
    "TriplePointTemperature": "165",
    "TriplePointPressure": "0.0000151957",
    "MolecularWeight": "142.2817",
    "LiquidVolumeAtNormalBoilingPoint": "0.19248",
    "AcentricityFactor": "0.383",
    "RadiusOfGyration": "4.886E-10",
    "SolubilityParameter": "15010",
    "DipoleMoment": "0",
    "VanDerWaalsVolume": "0.10915",
    "VanDerWaalsArea": "1.522E+09",
    "HeatOfFormation": "-2.588E+08",
    "GibbsEnergyOfFormation": "3.23E+07",
    "AbsEntropy": "513420",
    "HeatOfFusionAtMeltingPoint": "1.4E+07",
    "HeatOfCombustion": "-6.2911E+09",
    "SolidDensity": {
        "eqno": "100",
        "A": "7.4787",
        "B": "-0.0056657",
        "C": "0",
        "D": "0",
        "E": "0",
        "Tmin": "66",
        "Tmax": "165"
    },
    "LiquidDensity": {
        "eqno": "105",
        "A": "0.32798",
        "B": "0.22465",
        "C": "609.6",
        "D": "0.2413",
        "Tmin": "165",
        "Tmax": "609.5"
    },
    "VaporPressure": {
        "eqno": "101",
        "A": "165.0702",
        "B": "-10873.83",
        "C": "-21.67781",
        "D": "0.0000174271",
        "E": "2",
        "Tmin": "165",
        "Tmax": "609.5"
    },
    "HeatOfVaporization": {
        "eqno": "106",
        "A": "5.692041E+07",
        "B": "-0.369689",
        "C": "2.788348",
        "D": "-3.430471",
        "E": "1.37842",
        "Tmin": "165",
        "Tmax": "609.5"
    },
    "SolidHeatCapacityCp": {
        "eqno": "1",
        "A": "275220",
        "Tmin": "0",
        "Tmax": "609.6"
    },
    "LiquidHeatCapacityCp": {
        "eqno": "16",
        "A": "181900",
        "B": "88.778",
        "C": "8.7398",
        "D": "0.011239",
        "E": "-0.0000078705",
        "Tmin": "165",
        "Tmax": "457.16"
    },
    "IdealGasHeatCapacityCp": {
        "eqno": "16",
        "A": "93450",
        "B": "-461.09",
        "C": "13.294",
        "D": "0.00031582",
        "E": "-1.0309E-07",
        "Tmin": "200",
        "Tmax": "1500"
    },
    "SecondVirialCoefficient": {
        "eqno": "104",
        "A": "0.33139",
        "B": "-440.19",
        "C": "-87.279",
        "D": "-20730",
        "E": "33410",
        "Tmin": "304.75",
        "Tmax": "1500"
    },
    "LiquidViscosity": {
        "eqno": "101",
        "A": "-7.8795",
        "B": "1294.8",
        "C": "-0.60549",
        "D": "-4.2086E-07",
        "E": "2",
        "Tmin": "165",
        "Tmax": "548.64"
    },
    "VaporViscosity": {
        "eqno": "102",
        "A": "5.7085E-07",
        "B": "0.52829",
        "C": "329.98",
        "D": "-4470.2",
        "Tmin": "165",
        "Tmax": "1000"
    },
    "LiquidThermalConductivity": {
        "eqno": "16",
        "A": "0.0037809",
        "B": "-39.052",
        "C": "-1.5072",
        "D": "-0.0019367",
        "E": "-8.6862E-07",
        "Tmin": "165",
        "Tmax": "550"
    },
    "VaporThermalConductivity": {
        "eqno": "102",
        "A": "0.000042493",
        "B": "1.1211",
        "C": "-89.298",
        "D": "167970",
        "Tmin": "165",
        "Tmax": "1000"
    },
    "SurfaceTension": {
        "eqno": "16",
        "A": "-0.0079018",
        "B": "47.103",
        "C": "-3.4097",
        "D": "0.00092865",
        "E": "-0.0000056403",
        "Tmin": "165",
        "Tmax": "609.5"
    },
    "RPPHeatCapacityCp": {
        "eqno": "100",
        "A": "-24935",
        "B": "982.01",
        "C": "-0.34771",
        "D": "-0.00019639",
        "E": "1.4276E-07",
        "Tmin": "200",
        "Tmax": "1000"
    },
    "AntoineVaporPressure": {
        "eqno": "10",
        "A": "20.755",
        "B": "3365.2",
        "C": "-64.25",
        "Tmin": "374.15",
        "Tmax": "539.32"
    },
    "LiquidViscosityRPS": {
        "eqno": "12",
        "A": "-1.4461",
        "B": "-0.016988",
        "Tmin": "165",
        "Tmax": "487.64"
    },
    "COSTALDVolume": "0.615915",
    "DiameterLJ": "7.835398E-10",
    "EnergyLJ": "303.2417",
    "RacketParameter": "0.258",
    "FullerVolume": "209.82",
    "Parachor": "0.0742386",
    "SpecificGravity": "0.747136",
    "Charge": "0",
    "CostaldAcentricFactor": "0.383",
    "WilsonVolume": "0.19248",
    "UniquacR": "7.1951",
    "UniquacQ": "6.088",
    "ChaoSeaderAcentricFactor": "0.383",
    "ChaoSeaderSolubilityParameter": "15010",
    "ChaoSeaderLiquidVolume": "0.19248",
    "UnifacVLE": {
        "group": "1"
    },
    "UnifacLLE": {
        "group": "1"
    },
    "Asog": {
        "group": "1"
    },
    "GCmethod": {
        "group": "1"
    },
    "Umr": {
        "group": "1"
    },
    "ModifiedUnifac": {
        "group": "1"
    },
    "CAS": "7154-80-5",
    "Smiles": "CCC(C)(C)CC(C)CC"
}