{
    "LibraryIndex": "1066",
    "CompoundID": "3,3-dimethyl-2-butanone",
    "StructureFormula": "(CH3)3CCOCH3",
    "Family": "26",
    "CriticalTemperature": "567",
    "CriticalPressure": "3470000",
    "CriticalVolume": "0.368",
    "CriticalCompressibility": "0.261",
    "NormalBoilingPointTemperature": "379.45",
    "NormalMeltingPointTemperature": "221.15",
    "TriplePointTemperature": "221.15",
    "TriplePointPressure": "14.4334",
    "MolecularWeight": "100.1589",
    "LiquidVolumeAtNormalBoilingPoint": "0.124869",
    "AcentricityFactor": "0.327309",
    "RadiusOfGyration": "3.643E-10",
    "SolubilityParameter": "16920",
    "DipoleMoment": "9.37E-30",
    "VanDerWaalsVolume": "0.06971",
    "VanDerWaalsArea": "1.008E+09",
    "HeatOfFormation": "-2.905E+08",
    "GibbsEnergyOfFormation": "-1.307E+08",
    "AbsEntropy": "384400",
    "HeatOfFusionAtMeltingPoint": "1.133E+07",
    "MatthiasCopemanC1": "1.08969",
    "HeatOfCombustion": "-3.4837E+09",
    "SolidDensity": {
        "eqno": "100",
        "A": "11.11",
        "B": "-0.0062798",
        "C": "0",
        "D": "0",
        "E": "0",
        "Tmin": "88.46",
        "Tmax": "221.15"
    },
    "LiquidDensity": {
        "eqno": "105",
        "A": "0.050005",
        "B": "0.070782",
        "C": "567",
        "D": "0.11676",
        "Tmin": "221.15",
        "Tmax": "564"
    },
    "VaporPressure": {
        "eqno": "101",
        "A": "93.48771",
        "B": "-7385.263",
        "C": "-10.71444",
        "D": "7.878115E-06",
        "E": "2",
        "Tmin": "221.15",
        "Tmax": "565"
    },
    "HeatOfVaporization": {
        "eqno": "106",
        "A": "5.0163E+07",
        "B": "0.36416",
        "C": "-0.10654",
        "D": "0.27936",
        "E": "-0.16414",
        "Tmin": "221.15",
        "Tmax": "564"
    },
    "SolidHeatCapacityCp": {
        "eqno": "100",
        "A": "-12892",
        "B": "1715.9",
        "C": "-11.85",
        "D": "0.049444",
        "E": "-0.000066905",
        "Tmin": "11.42",
        "Tmax": "215.13"
    },
    "LiquidHeatCapacityCp": {
        "eqno": "16",
        "A": "154180",
        "B": "195.77",
        "C": "7.7152",
        "D": "0.0092036",
        "E": "-0.0000029177",
        "Tmin": "190",
        "Tmax": "450"
    },
    "IdealGasHeatCapacityCp": {
        "eqno": "16",
        "A": "104260",
        "B": "-866.95",
        "C": "13.572",
        "D": "-0.00063607",
        "E": "2.0716E-07",
        "Tmin": "273",
        "Tmax": "1200"
    },
    "SecondVirialCoefficient": {
        "eqno": "104",
        "A": "0.21862",
        "B": "-246.98",
        "C": "-51.298",
        "D": "-13508",
        "E": "12998",
        "Tmin": "282",
        "Tmax": "1500"
    },
    "LiquidViscosity": {
        "eqno": "101",
        "A": "-19.254",
        "B": "1373.2",
        "C": "1.3346",
        "D": "-0.0000032641",
        "E": "2",
        "Tmin": "221.15",
        "Tmax": "473"
    },
    "VaporViscosity": {
        "eqno": "102",
        "A": "1.8869E-07",
        "B": "0.70026",
        "C": "190.78",
        "D": "-6542.3",
        "Tmin": "221.15",
        "Tmax": "1000"
    },
    "LiquidThermalConductivity": {
        "eqno": "16",
        "A": "-0.15399",
        "B": "9.8963",
        "C": "-1.0886",
        "D": "-0.00030883",
        "E": "-9.2007E-07",
        "Tmin": "221.15",
        "Tmax": "450"
    },
    "VaporThermalConductivity": {
        "eqno": "102",
        "A": "1744.4",
        "B": "1.0305",
        "C": "1.6872E+10",
        "D": "-1.3896E+11",
        "Tmin": "221.15",
        "Tmax": "1000"
    },
    "SurfaceTension": {
        "eqno": "16",
        "A": "-0.0051063",
        "B": "135.01",
        "C": "-4.5681",
        "D": "0.0055635",
        "E": "-0.000012777",
        "Tmin": "221.15",
        "Tmax": "564"
    },
    "RPPHeatCapacityCp": {
        "eqno": "4",
        "A": "-1641.8",
        "B": "551.82",
        "C": "-0.27948",
        "D": "0.000048732",
        "Tmin": "273",
        "Tmax": "1200"
    },
    "AntoineVaporPressure": {
        "eqno": "10",
        "A": "20.806",
        "B": "2939.8",
        "C": "-62.476",
        "Tmin": "343.57",
        "Tmax": "509.87"
    },
    "LiquidViscosityRPS": {
        "eqno": "12",
        "A": "-3.2054",
        "B": "-0.013548",
        "Tmin": "221.15",
        "Tmax": "379.45"
    },
    "COSTALDVolume": "0.375222",
    "DiameterLJ": "6.702327E-10",
    "EnergyLJ": "294.0371",
    "RacketParameter": "0.261",
    "FullerVolume": "129.23",
    "MatthiasCopemanC2": "-0.91793",
    "Parachor": "0.0479897",
    "SpecificGravity": "0.810203",
    "Charge": "0",
    "CostaldAcentricFactor": "0.327309",
    "WilsonVolume": "0.124869",
    "UniquacR": "4.5952",
    "UniquacQ": "4.032",
    "MatthiasCopemanC3": "1.11079",
    "ChaoSeaderAcentricFactor": "0.327309",
    "ChaoSeaderSolubilityParameter": "16920",
    "ChaoSeaderLiquidVolume": "0.124869",
    "UnifacVLE": {
        "group": "1"
    },
    "UnifacLLE": {
        "group": "1"
    },
    "Asog": {
        "group": "1"
    },
    "Umr": {
        "group": "1"
    },
    "ModifiedUnifac": {
        "group": "1"
    },
    "CAS": "75-97-8",
    "Smiles": "CC(=O)C(C)(C)C"
}