{
    "LibraryIndex": "36",
    "CompoundID": "3,3-dimethylhexane",
    "StructureFormula": "CH3CH2C(CH3)2CH2CH2CH3",
    "Family": "4",
    "CriticalTemperature": "562",
    "CriticalPressure": "2650000",
    "CriticalVolume": "0.4428",
    "CriticalCompressibility": "0.251",
    "NormalBoilingPointTemperature": "385.12",
    "NormalMeltingPointTemperature": "147.05",
    "TriplePointTemperature": "147.05",
    "TriplePointPressure": "0.0000473645",
    "MolecularWeight": "114.2285",
    "LiquidVolumeAtNormalBoilingPoint": "0.16181",
    "AcentricityFactor": "0.32",
    "RadiusOfGyration": "3.717E-10",
    "SolubilityParameter": "14880",
    "DipoleMoment": "0",
    "VanDerWaalsVolume": "0.0886999",
    "VanDerWaalsArea": "1.253E+09",
    "HeatOfFormation": "-2.2012E+08",
    "GibbsEnergyOfFormation": "1.32633E+07",
    "AbsEntropy": "438230",
    "HeatOfFusionAtMeltingPoint": "7112800",
    "MatthiasCopemanC1": "0.9621",
    "HeatOfCombustion": "-5.06682E+09",
    "SolidDensity": {
        "eqno": "2",
        "A": "8.9019",
        "B": "-0.006722",
        "C": "0",
        "D": "0",
        "E": "0",
        "Tmin": "58.82",
        "Tmax": "147.05"
    },
    "LiquidDensity": {
        "eqno": "105",
        "A": "0.45959",
        "B": "0.24567",
        "C": "562",
        "D": "0.21162",
        "Tmin": "147.05",
        "Tmax": "561.95"
    },
    "VaporPressure": {
        "eqno": "101",
        "A": "109.95",
        "B": "-8119.3",
        "C": "-13.232",
        "D": "0.0000097251",
        "E": "2",
        "Tmin": "147.05",
        "Tmax": "562"
    },
    "HeatOfVaporization": {
        "eqno": "106",
        "A": "5.8755E+07",
        "B": "0.81257",
        "C": "-0.27217",
        "D": "-0.51422",
        "E": "0.40803",
        "Tmin": "147.05",
        "Tmax": "540.16"
    },
    "SolidHeatCapacityCp": {
        "eqno": "1",
        "A": "223200",
        "Tmin": "0",
        "Tmax": "562"
    },
    "LiquidHeatCapacityCp": {
        "eqno": "16",
        "A": "130950",
        "B": "-54.41",
        "C": "9.7102",
        "D": "0.0098373",
        "E": "-0.0000089507",
        "Tmin": "226.41",
        "Tmax": "385.12"
    },
    "IdealGasHeatCapacityCp": {
        "eqno": "16",
        "A": "73854",
        "B": "-426.62",
        "C": "12.974",
        "D": "0.00044554",
        "E": "-1.4645E-07",
        "Tmin": "200",
        "Tmax": "1500"
    },
    "SecondVirialCoefficient": {
        "eqno": "104",
        "A": "0.26895",
        "B": "-323.28",
        "C": "-54.431",
        "D": "-10397",
        "E": "17361",
        "Tmin": "281",
        "Tmax": "2000"
    },
    "LiquidViscosity": {
        "eqno": "101",
        "A": "-7.0202",
        "B": "924.42",
        "C": "-0.69061",
        "D": "0.0000021821",
        "E": "2",
        "Tmin": "180",
        "Tmax": "400"
    },
    "VaporViscosity": {
        "eqno": "102",
        "A": "1.9286E-07",
        "B": "0.65784",
        "C": "75.166",
        "D": "8686.9",
        "Tmin": "385.12",
        "Tmax": "1000"
    },
    "LiquidThermalConductivity": {
        "eqno": "16",
        "A": "-0.074777",
        "B": "3.6654",
        "C": "-1.4953",
        "D": "-0.00045709",
        "E": "-0.000001113",
        "Tmin": "147.05",
        "Tmax": "385.12"
    },
    "VaporThermalConductivity": {
        "eqno": "102",
        "A": "0.000028072",
        "B": "1.1786",
        "C": "-168.43",
        "D": "151580",
        "Tmin": "147.05",
        "Tmax": "1000"
    },
    "SurfaceTension": {
        "eqno": "16",
        "A": "-0.013471",
        "B": "13.363",
        "C": "-2.98",
        "D": "-0.00049832",
        "E": "-0.0000034578",
        "Tmin": "147.05",
        "Tmax": "540.16"
    },
    "RPPHeatCapacityCp": {
        "eqno": "100",
        "A": "-17402",
        "B": "785.55",
        "C": "-0.23347",
        "D": "-0.00023372",
        "E": "1.5099E-07",
        "Tmin": "200",
        "Tmax": "1000"
    },
    "RelativeStaticPermittivity": {
        "eqno": "120",
        "A": "-1.796538",
        "B": "-1200",
        "C": "-7.2",
        "Tmin": "274.15",
        "Tmax": "444.15"
    },
    "AntoineVaporPressure": {
        "eqno": "10",
        "A": "20.871",
        "B": "3143.9",
        "C": "-48.698",
        "Tmin": "343.14",
        "Tmax": "503.77"
    },
    "LiquidViscosityRPS": {
        "eqno": "12",
        "A": "-3.4713",
        "B": "-0.013535",
        "Tmin": "180",
        "Tmax": "385.12"
    },
    "COSTALDVolume": "0.486848",
    "DiameterLJ": "7.470891E-10",
    "EnergyLJ": "253.2065",
    "RacketParameter": "0.266364",
    "FullerVolume": "168.78",
    "MatthiasCopemanC2": "0",
    "Parachor": "0.0599069",
    "SpecificGravity": "0.713866",
    "Charge": "0",
    "CostaldAcentricFactor": "0.32",
    "WilsonVolume": "0.16181",
    "UniquacR": "5.8471",
    "UniquacQ": "5.012",
    "ApiSrkS2": "-0.001728",
    "MatthiasCopemanC3": "0",
    "ChaoSeaderAcentricFactor": "0.32",
    "ChaoSeaderSolubilityParameter": "14880",
    "ChaoSeaderLiquidVolume": "0.16181",
    "UnifacVLE": {
        "group": "1"
    },
    "UnifacLLE": {
        "group": "1"
    },
    "Asog": {
        "group": "1"
    },
    "GCmethod": {
        "group": "1"
    },
    "Umr": {
        "group": "1"
    },
    "ModifiedUnifac": {
        "group": "1"
    },
    "CAS": "563-16-6",
    "Smiles": "CCC(C)(C)CCC"
}