{
    "LibraryIndex": "24",
    "CompoundID": "3,3-dimethylpentane",
    "StructureFormula": "CH3CH2C(CH3)2CH2CH3",
    "Family": "4",
    "CriticalTemperature": "536.3",
    "CriticalPressure": "2950000",
    "CriticalVolume": "0.4141",
    "CriticalCompressibility": "0.274",
    "NormalBoilingPointTemperature": "359.19",
    "NormalMeltingPointTemperature": "138.7",
    "TriplePointTemperature": "138.7",
    "TriplePointPressure": "0.000229687",
    "MolecularWeight": "100.202",
    "LiquidVolumeAtNormalBoilingPoint": "0.1454",
    "AcentricityFactor": "0.269",
    "RadiusOfGyration": "3.768E-10",
    "SolubilityParameter": "14530",
    "DipoleMoment": "0",
    "VanDerWaalsVolume": "0.07847",
    "VanDerWaalsArea": "1.118E+09",
    "HeatOfFormation": "-2.0146E+08",
    "GibbsEnergyOfFormation": "2719600",
    "AbsEntropy": "398150",
    "HeatOfFusionAtMeltingPoint": "7066780",
    "MatthiasCopemanC1": "0.93732",
    "HeatOfCombustion": "-4.45458E+09",
    "SolidDensity": {
        "eqno": "2",
        "A": "10.356",
        "B": "-0.0082936",
        "C": "0",
        "D": "0",
        "E": "0",
        "Tmin": "55.48",
        "Tmax": "138.7"
    },
    "LiquidDensity": {
        "eqno": "105",
        "A": "0.57981",
        "B": "0.25238",
        "C": "536.41",
        "D": "0.28345",
        "Tmin": "138.7",
        "Tmax": "536.4"
    },
    "VaporPressure": {
        "eqno": "101",
        "A": "74.58125",
        "B": "-6059.883",
        "C": "-7.986446",
        "D": "6.250113E-06",
        "E": "2",
        "Tmin": "138.7",
        "Tmax": "536.4"
    },
    "HeatOfVaporization": {
        "eqno": "106",
        "A": "5.254E+07",
        "B": "1.1834",
        "C": "-1.8011",
        "D": "1.5275",
        "E": "-0.48856",
        "Tmin": "138.7",
        "Tmax": "515.47"
    },
    "SolidHeatCapacityCp": {
        "eqno": "100",
        "A": "-10707",
        "B": "1309.2",
        "C": "-1.4394",
        "D": "-0.047767",
        "E": "0.00027764",
        "Tmin": "20",
        "Tmax": "138.75"
    },
    "LiquidHeatCapacityCp": {
        "eqno": "16",
        "A": "122500",
        "B": "86.779",
        "C": "8.7861",
        "D": "0.0099608",
        "E": "-0.0000069264",
        "Tmin": "138.7",
        "Tmax": "370"
    },
    "IdealGasHeatCapacityCp": {
        "eqno": "16",
        "A": "67595",
        "B": "-428.94",
        "C": "12.79",
        "D": "0.00052141",
        "E": "-1.6453E-07",
        "Tmin": "200",
        "Tmax": "1500"
    },
    "SecondVirialCoefficient": {
        "eqno": "104",
        "A": "0.23671",
        "B": "-275.05",
        "C": "-39.954",
        "D": "-5103.8",
        "E": "7728.1",
        "Tmin": "268.2",
        "Tmax": "2000"
    },
    "LiquidViscosity": {
        "eqno": "101",
        "A": "-7.1051",
        "B": "998.94",
        "C": "-0.73694",
        "D": "0.0000026961",
        "E": "2",
        "Tmin": "138.7",
        "Tmax": "400"
    },
    "VaporViscosity": {
        "eqno": "102",
        "A": "9.3561E-07",
        "B": "0.48169",
        "C": "385.32",
        "D": "9.0702",
        "Tmin": "359.21",
        "Tmax": "1000"
    },
    "LiquidThermalConductivity": {
        "eqno": "16",
        "A": "-0.050708",
        "B": "3.465",
        "C": "-1.5874",
        "D": "-0.00046821",
        "E": "-0.000001622",
        "Tmin": "138.7",
        "Tmax": "359.21"
    },
    "VaporThermalConductivity": {
        "eqno": "102",
        "A": "0.000069501",
        "B": "1.0643",
        "C": "-68.32",
        "D": "160740",
        "Tmin": "138.7",
        "Tmax": "1000"
    },
    "SurfaceTension": {
        "eqno": "16",
        "A": "-0.012361",
        "B": "17.687",
        "C": "-3.0268",
        "D": "-0.00037187",
        "E": "-0.0000042897",
        "Tmin": "138.7",
        "Tmax": "515.47"
    },
    "RPPHeatCapacityCp": {
        "eqno": "100",
        "A": "-3990.9",
        "B": "610.41",
        "C": "-0.061527",
        "D": "-0.00029616",
        "E": "1.5149E-07",
        "Tmin": "200",
        "Tmax": "1000"
    },
    "RelativeStaticPermittivity": {
        "eqno": "120",
        "A": "-1.404923",
        "B": "-950",
        "C": "-5.7",
        "Tmin": "274.15",
        "Tmax": "444.15"
    },
    "AntoineVaporPressure": {
        "eqno": "10",
        "A": "20.798",
        "B": "2942.1",
        "C": "-41.889",
        "Tmin": "325.25",
        "Tmax": "477.89"
    },
    "LiquidViscosityRPS": {
        "eqno": "12",
        "A": "-1.473",
        "B": "-0.020618",
        "Tmin": "138.7",
        "Tmax": "359.21"
    },
    "COSTALDVolume": "0.425834",
    "DiameterLJ": "6.576266E-10",
    "EnergyLJ": "331.3011",
    "RacketParameter": "0.274",
    "FullerVolume": "148.26",
    "MatthiasCopemanC2": "-0.41501",
    "Parachor": "0.0543081",
    "SpecificGravity": "0.696441",
    "Charge": "0",
    "CostaldAcentricFactor": "0.269",
    "WilsonVolume": "0.1454",
    "UniquacR": "5.1727",
    "UniquacQ": "4.472",
    "ApiSrkS2": "-0.004779",
    "MatthiasCopemanC3": "0.77243",
    "ChaoSeaderAcentricFactor": "0.269",
    "ChaoSeaderSolubilityParameter": "14530",
    "ChaoSeaderLiquidVolume": "0.1454",
    "UnifacVLE": {
        "group": "1"
    },
    "UnifacLLE": {
        "group": "1"
    },
    "Asog": {
        "group": "1"
    },
    "GCmethod": {
        "group": "1"
    },
    "Umr": {
        "group": "1"
    },
    "ModifiedUnifac": {
        "group": "1"
    },
    "CAS": "562-49-2",
    "Smiles": "CCC(C)(C)CC"
}