{
    "LibraryIndex": "2749",
    "CompoundID": "3,5-dinitrotoluene",
    "StructureFormula": "CH3(C6H3)(NO2)2",
    "Family": "39",
    "CriticalTemperature": "800",
    "CriticalPressure": "2150000",
    "CriticalVolume": "0.487",
    "CriticalCompressibility": "0.238",
    "NormalBoilingPointTemperature": "588",
    "NormalMeltingPointTemperature": "366.15",
    "TriplePointTemperature": "365.65",
    "TriplePointPressure": "35.4684",
    "MolecularWeight": "182.1335",
    "LiquidVolumeAtNormalBoilingPoint": "0.140577",
    "AcentricityFactor": "0.702302",
    "RadiusOfGyration": "5.314E-10",
    "SolubilityParameter": "21440",
    "DipoleMoment": "1.44E-29",
    "VanDerWaalsVolume": "0.08807",
    "VanDerWaalsArea": "1.112E+09",
    "HeatOfFormation": "2.71E+07",
    "GibbsEnergyOfFormation": "2.34E+08",
    "AbsEntropy": "414000",
    "HeatOfFusionAtMeltingPoint": "2.29E+07",
    "HeatOfCombustion": "-3.437E+09",
    "SolidDensity": {
        "eqno": "2",
        "A": "9.0259",
        "B": "-0.0027445",
        "C": "0",
        "D": "0",
        "E": "0",
        "Tmin": "146.26",
        "Tmax": "365.65"
    },
    "LiquidDensity": {
        "eqno": "105",
        "A": "0.45727",
        "B": "0.227",
        "C": "814.01",
        "D": "0.27155",
        "Tmin": "365.65",
        "Tmax": "814"
    },
    "VaporPressure": {
        "eqno": "101",
        "A": "63.61855",
        "B": "-10355.64",
        "C": "-5.423477",
        "D": "2.374318E-07",
        "E": "2",
        "Tmin": "365.65",
        "Tmax": "814"
    },
    "HeatOfVaporization": {
        "eqno": "106",
        "A": "5.989509E+07",
        "B": "-0.991558",
        "C": "3.414071",
        "D": "-4.448985",
        "E": "2.238465",
        "Tmin": "365.65",
        "Tmax": "790.4"
    },
    "SolidHeatCapacityCp": {
        "eqno": "100",
        "A": "8551.8",
        "B": "908.56",
        "C": "-1.4311",
        "D": "0.0028756",
        "E": "-0.0000025075",
        "Tmin": "50",
        "Tmax": "365.65"
    },
    "LiquidHeatCapacityCp": {
        "eqno": "16",
        "A": "211860",
        "B": "-5.3058",
        "C": "8.1208",
        "D": "0.009225",
        "E": "-0.0000034389",
        "Tmin": "365.65",
        "Tmax": "588"
    },
    "IdealGasHeatCapacityCp": {
        "eqno": "16",
        "A": "94512",
        "B": "-582.56",
        "C": "13.27",
        "D": "-0.00026587",
        "E": "5.3735E-08",
        "Tmin": "273",
        "Tmax": "1500"
    },
    "SecondVirialCoefficient": {
        "eqno": "104",
        "A": "0.31159",
        "B": "-362.24",
        "C": "-319.87",
        "D": "-785450",
        "E": "1509600",
        "Tmin": "407",
        "Tmax": "1871"
    },
    "LiquidViscosity": {
        "eqno": "101",
        "A": "-0.25652",
        "B": "2097.7",
        "C": "-2.0147",
        "D": "0.0000014987",
        "E": "2",
        "Tmin": "365.65",
        "Tmax": "714"
    },
    "VaporViscosity": {
        "eqno": "102",
        "A": "4.7633E-08",
        "B": "0.90246",
        "C": "116.57",
        "D": "-8469.6",
        "Tmin": "365.65",
        "Tmax": "1000"
    },
    "LiquidThermalConductivity": {
        "eqno": "16",
        "A": "-0.029795",
        "B": "-134.57",
        "C": "-0.63203",
        "D": "-0.0021751",
        "E": "3.0388E-07",
        "Tmin": "365.65",
        "Tmax": "588"
    },
    "VaporThermalConductivity": {
        "eqno": "102",
        "A": "0.00014433",
        "B": "0.92815",
        "C": "684.42",
        "D": "24021",
        "Tmin": "274",
        "Tmax": "1000"
    },
    "SurfaceTension": {
        "eqno": "16",
        "A": "-0.02022",
        "B": "191.13",
        "C": "-3.4062",
        "D": "0.001628",
        "E": "-0.0000032376",
        "Tmin": "365.65",
        "Tmax": "790.4"
    },
    "RPPHeatCapacityCp": {
        "eqno": "4",
        "A": "-14258",
        "B": "768.51",
        "C": "-0.52986",
        "D": "0.00013246",
        "Tmin": "273",
        "Tmax": "1500"
    },
    "AntoineVaporPressure": {
        "eqno": "10",
        "A": "24.061",
        "B": "7289.5",
        "C": "-7.1177",
        "Tmin": "483.64",
        "Tmax": "719.61"
    },
    "LiquidViscosityRPS": {
        "eqno": "12",
        "A": "-1.8766",
        "B": "-0.012458",
        "Tmin": "365.65",
        "Tmax": "588"
    },
    "COSTALDVolume": "0.483027",
    "DiameterLJ": "8.219819E-10",
    "EnergyLJ": "297.6324",
    "RacketParameter": "0.18751",
    "FullerVolume": "122.08",
    "Parachor": "0.0647636",
    "SpecificGravity": "1.370051",
    "Charge": "0",
    "CostaldAcentricFactor": "0.702302",
    "WilsonVolume": "0.140577",
    "UniquacR": "5.7",
    "UniquacQ": "4.376",
    "ChaoSeaderAcentricFactor": "0.702302",
    "ChaoSeaderSolubilityParameter": "21440",
    "ChaoSeaderLiquidVolume": "0.140577",
    "UnifacVLE": {
        "group": "2"
    },
    "UnifacLLE": {
        "group": "2"
    },
    "Asog": {
        "group": "2"
    },
    "Umr": {
        "group": "2"
    },
    "ModifiedUnifac": {
        "group": "2"
    },
    "CAS": "618-85-9",
    "Smiles": "c1(C)cc(N(=O)=O)cc(N(=O)=O)c1"
}