{
    "LibraryIndex": "94",
    "CompoundID": "3-ethylheptane",
    "StructureFormula": "CH3CH2CH(C2H5)CH2(CH2)2CH3",
    "Family": "4",
    "CriticalTemperature": "594.3",
    "CriticalPressure": "2430000",
    "CriticalVolume": "0.5213",
    "CriticalCompressibility": "0.257",
    "NormalBoilingPointTemperature": "416.35",
    "NormalMeltingPointTemperature": "158.25",
    "TriplePointTemperature": "158.25",
    "TriplePointPressure": "0.0000277743",
    "MolecularWeight": "128.2551",
    "LiquidVolumeAtNormalBoilingPoint": "0.177515",
    "AcentricityFactor": "0.407991",
    "RadiusOfGyration": "4.953E-10",
    "SolubilityParameter": "15300",
    "DipoleMoment": "0",
    "VanDerWaalsVolume": "0.09894",
    "VanDerWaalsArea": "1.368E+09",
    "HeatOfFormation": "-2.3146E+08",
    "GibbsEnergyOfFormation": "2.494E+07",
    "AbsEntropy": "497400",
    "HeatOfFusionAtMeltingPoint": "1.6E+07",
    "HeatOfCombustion": "-5.6838E+09",
    "SolidDensity": {
        "eqno": "100",
        "A": "8.1778",
        "B": "-0.0064596",
        "C": "0",
        "D": "0",
        "E": "0",
        "Tmin": "63.3",
        "Tmax": "158.25"
    },
    "LiquidDensity": {
        "eqno": "105",
        "A": "0.38578",
        "B": "0.23273",
        "C": "594.3",
        "D": "0.25158",
        "Tmin": "158.25",
        "Tmax": "567.28"
    },
    "VaporPressure": {
        "eqno": "101",
        "A": "103.6653",
        "B": "-8269.445",
        "C": "-12.32292",
        "D": "0.000012256",
        "E": "2",
        "Tmin": "158.25",
        "Tmax": "590"
    },
    "HeatOfVaporization": {
        "eqno": "106",
        "A": "6.3311E+07",
        "B": "1.0505",
        "C": "-1.9581",
        "D": "2.2955",
        "E": "-0.98973",
        "Tmin": "158.25",
        "Tmax": "590"
    },
    "SolidHeatCapacityCp": {
        "eqno": "1",
        "A": "249210",
        "Tmin": "0",
        "Tmax": "594.3"
    },
    "LiquidHeatCapacityCp": {
        "eqno": "16",
        "A": "29546",
        "B": "-3.2521",
        "C": "11.386",
        "D": "0.0045932",
        "E": "-0.0000035582",
        "Tmin": "158.25",
        "Tmax": "416.35"
    },
    "IdealGasHeatCapacityCp": {
        "eqno": "16",
        "A": "137360",
        "B": "-689.88",
        "C": "13.586",
        "D": "-0.00018791",
        "E": "5.2355E-08",
        "Tmin": "150",
        "Tmax": "1500"
    },
    "SecondVirialCoefficient": {
        "eqno": "104",
        "A": "0.30691",
        "B": "-394.25",
        "C": "-77.102",
        "D": "-21616",
        "E": "36748",
        "Tmin": "297.15",
        "Tmax": "1500"
    },
    "LiquidViscosity": {
        "eqno": "101",
        "A": "-11.279",
        "B": "1149.8",
        "C": "-0.019903",
        "D": "1.7111E-07",
        "E": "2",
        "Tmin": "158.25",
        "Tmax": "475.44"
    },
    "VaporViscosity": {
        "eqno": "102",
        "A": "0.0000007497",
        "B": "0.48637",
        "C": "340.94",
        "D": "-2876.9",
        "Tmin": "158.25",
        "Tmax": "1000"
    },
    "LiquidThermalConductivity": {
        "eqno": "16",
        "A": "-0.038271",
        "B": "3.4169",
        "C": "-1.6847",
        "D": "-0.00052626",
        "E": "-0.0000013295",
        "Tmin": "158.25",
        "Tmax": "416.35"
    },
    "VaporThermalConductivity": {
        "eqno": "102",
        "A": "0.000030963",
        "B": "1.1527",
        "C": "-150.17",
        "D": "156710",
        "Tmin": "158.25",
        "Tmax": "1000"
    },
    "SurfaceTension": {
        "eqno": "16",
        "A": "-0.011888",
        "B": "12.561",
        "C": "-2.9032",
        "D": "-0.00075797",
        "E": "-0.0000031904",
        "Tmin": "158.25",
        "Tmax": "590"
    },
    "RPPHeatCapacityCp": {
        "eqno": "4",
        "A": "28905",
        "B": "723.1",
        "C": "-0.30251",
        "D": "0.000037455",
        "Tmin": "150",
        "Tmax": "1500"
    },
    "AntoineVaporPressure": {
        "eqno": "10",
        "A": "20.883",
        "B": "3285.8",
        "C": "-64.914",
        "Tmin": "362.76",
        "Tmax": "521.83"
    },
    "LiquidViscosityRPS": {
        "eqno": "12",
        "A": "-2.3411",
        "B": "-0.016316",
        "Tmin": "158.25",
        "Tmax": "416.35"
    },
    "COSTALDVolume": "0.550226",
    "DiameterLJ": "7.668101E-10",
    "EnergyLJ": "291.5266",
    "RacketParameter": "0.257",
    "FullerVolume": "189.3",
    "Parachor": "0.0682157",
    "SpecificGravity": "0.730456",
    "Charge": "0",
    "CostaldAcentricFactor": "0.407991",
    "WilsonVolume": "0.177515",
    "UniquacR": "6.5222",
    "UniquacQ": "5.472",
    "ChaoSeaderAcentricFactor": "0.407991",
    "ChaoSeaderSolubilityParameter": "15300",
    "ChaoSeaderLiquidVolume": "0.177515",
    "UnifacVLE": {
        "group": "1"
    },
    "UnifacLLE": {
        "group": "1"
    },
    "Asog": {
        "group": "1"
    },
    "GCmethod": {
        "group": "1"
    },
    "Umr": {
        "group": "1"
    },
    "ModifiedUnifac": {
        "group": "1"
    },
    "CAS": "15869-80-4",
    "Smiles": "CCC(CC)CCCC"
}