{
    "LibraryIndex": "20",
    "CompoundID": "3-ethylpentane",
    "StructureFormula": "CH3CH2CH(CH2CH3)CH2CH3",
    "Family": "4",
    "CriticalTemperature": "540.5",
    "CriticalPressure": "2890000",
    "CriticalVolume": "0.4158",
    "CriticalCompressibility": "0.267",
    "NormalBoilingPointTemperature": "366.63",
    "NormalMeltingPointTemperature": "154.55",
    "TriplePointTemperature": "154.55",
    "TriplePointPressure": "0.00170947",
    "MolecularWeight": "100.202",
    "LiquidVolumeAtNormalBoilingPoint": "0.1444",
    "AcentricityFactor": "0.311",
    "RadiusOfGyration": "3.943E-10",
    "SolubilityParameter": "15040",
    "DipoleMoment": "0",
    "VanDerWaalsVolume": "0.0784799",
    "VanDerWaalsArea": "1.098E+09",
    "HeatOfFormation": "-1.89661E+08",
    "GibbsEnergyOfFormation": "1.09202E+07",
    "AbsEntropy": "411540",
    "HeatOfFusionAtMeltingPoint": "9547890",
    "MatthiasCopemanC1": "0.99001",
    "HeatOfCombustion": "-4.4642E+09",
    "SolidDensity": {
        "eqno": "2",
        "A": "10.258",
        "B": "-0.0073712",
        "C": "0",
        "D": "0",
        "E": "0",
        "Tmin": "61.82",
        "Tmax": "154.55"
    },
    "LiquidDensity": {
        "eqno": "105",
        "A": "0.56112",
        "B": "0.24813",
        "C": "540.61",
        "D": "0.27074",
        "Tmin": "154.55",
        "Tmax": "540.6"
    },
    "VaporPressure": {
        "eqno": "101",
        "A": "89.99315",
        "B": "-6915.896",
        "C": "-10.27777",
        "D": "8.039283E-06",
        "E": "2",
        "Tmin": "154.55",
        "Tmax": "540.6"
    },
    "HeatOfVaporization": {
        "eqno": "106",
        "A": "5.3257E+07",
        "B": "1.2647",
        "C": "-2.6729",
        "D": "3.1124",
        "E": "-1.3109",
        "Tmin": "154.55",
        "Tmax": "520.28"
    },
    "SolidHeatCapacityCp": {
        "eqno": "1",
        "A": "197190",
        "Tmin": "0",
        "Tmax": "540.5"
    },
    "LiquidHeatCapacityCp": {
        "eqno": "16",
        "A": "152590",
        "B": "204.56",
        "C": "5.9318",
        "D": "0.021701",
        "E": "-0.000022224",
        "Tmin": "250",
        "Tmax": "300"
    },
    "IdealGasHeatCapacityCp": {
        "eqno": "16",
        "A": "102980",
        "B": "-630.04",
        "C": "13.15",
        "D": "0.000058616",
        "E": "-2.6799E-08",
        "Tmin": "200",
        "Tmax": "1500"
    },
    "SecondVirialCoefficient": {
        "eqno": "104",
        "A": "0.24168",
        "B": "-300.63",
        "C": "-39.661",
        "D": "-8353.5",
        "E": "16171",
        "Tmin": "270.3",
        "Tmax": "1971.32"
    },
    "LiquidViscosity": {
        "eqno": "101",
        "A": "-11.885",
        "B": "1001.1",
        "C": "0.10351",
        "D": "-0.0000003544",
        "E": "2",
        "Tmin": "154.55",
        "Tmax": "432.4"
    },
    "VaporViscosity": {
        "eqno": "102",
        "A": "6.1521E-07",
        "B": "0.52741",
        "C": "287.77",
        "D": "1840.5",
        "Tmin": "366.62",
        "Tmax": "1000"
    },
    "LiquidThermalConductivity": {
        "eqno": "16",
        "A": "-0.055574",
        "B": "4.7874",
        "C": "-1.5746",
        "D": "-0.0003945",
        "E": "-0.0000016303",
        "Tmin": "154.55",
        "Tmax": "366.62"
    },
    "VaporThermalConductivity": {
        "eqno": "102",
        "A": "0.000065519",
        "B": "1.0691",
        "C": "-74.423",
        "D": "161360",
        "Tmin": "154.55",
        "Tmax": "1000"
    },
    "SurfaceTension": {
        "eqno": "16",
        "A": "-0.012077",
        "B": "20.986",
        "C": "-3.0408",
        "D": "-0.00022974",
        "E": "-0.0000045333",
        "Tmin": "154.55",
        "Tmax": "520.28"
    },
    "RPPHeatCapacityCp": {
        "eqno": "100",
        "A": "63173",
        "B": "162.52",
        "C": "0.96789",
        "D": "-0.0013392",
        "E": "0.0000005303",
        "Tmin": "200",
        "Tmax": "1000"
    },
    "AntoineVaporPressure": {
        "eqno": "10",
        "A": "20.873",
        "B": "2975.2",
        "C": "-48.333",
        "Tmin": "326.9",
        "Tmax": "479.64"
    },
    "LiquidViscosityRPS": {
        "eqno": "12",
        "A": "-2.9085",
        "B": "-0.016578",
        "Tmin": "154.55",
        "Tmax": "366.62"
    },
    "COSTALDVolume": "0.425892",
    "DiameterLJ": "6.792969E-10",
    "EnergyLJ": "304.1931",
    "RacketParameter": "0.267",
    "FullerVolume": "148.26",
    "MatthiasCopemanC2": "-0.36464",
    "Parachor": "0.0540613",
    "SpecificGravity": "0.704619",
    "Charge": "0",
    "CostaldAcentricFactor": "0.311",
    "WilsonVolume": "0.1444",
    "UniquacR": "5.1734",
    "UniquacQ": "4.392",
    "ApiSrkS2": "0.000168",
    "MatthiasCopemanC3": "0.76463",
    "ChaoSeaderAcentricFactor": "0.311",
    "ChaoSeaderSolubilityParameter": "15040",
    "ChaoSeaderLiquidVolume": "0.1444",
    "UnifacVLE": {
        "group": "1"
    },
    "UnifacLLE": {
        "group": "1"
    },
    "Asog": {
        "group": "1"
    },
    "GCmethod": {
        "group": "1"
    },
    "Umr": {
        "group": "1"
    },
    "ModifiedUnifac": {
        "group": "1"
    },
    "CAS": "617-78-7",
    "Smiles": "CCC(CC)CC"
}