{
    "LibraryIndex": "1057",
    "CompoundID": "3-heptanone",
    "StructureFormula": "CH3(CH2)3COC2H5",
    "Family": "26",
    "CriticalTemperature": "605",
    "CriticalPressure": "3010000",
    "CriticalVolume": "0.421",
    "CriticalCompressibility": "0.251",
    "NormalBoilingPointTemperature": "420.55",
    "NormalMeltingPointTemperature": "234.15",
    "TriplePointTemperature": "234.15",
    "TriplePointPressure": "2.29921",
    "MolecularWeight": "114.1855",
    "LiquidVolumeAtNormalBoilingPoint": "0.140257",
    "AcentricityFactor": "0.407565",
    "RadiusOfGyration": "4.539E-10",
    "SolubilityParameter": "17940",
    "DipoleMoment": "9.37E-30",
    "VanDerWaalsVolume": "0.07996",
    "VanDerWaalsArea": "1.124E+09",
    "HeatOfFormation": "-3.01E+08",
    "GibbsEnergyOfFormation": "-1.196E+08",
    "AbsEntropy": "448500",
    "HeatOfFusionAtMeltingPoint": "1.81E+07",
    "MatthiasCopemanC1": "1.13085",
    "HeatOfCombustion": "-4.098E+09",
    "SolidDensity": {
        "eqno": "100",
        "A": "9.6961",
        "B": "-0.0051762",
        "C": "0",
        "D": "0",
        "E": "0",
        "Tmin": "93.66",
        "Tmax": "234.15"
    },
    "LiquidDensity": {
        "eqno": "105",
        "A": "0.65544",
        "B": "0.26958",
        "C": "605",
        "D": "0.29059",
        "Tmin": "234.15",
        "Tmax": "587"
    },
    "VaporPressure": {
        "eqno": "101",
        "A": "59.93996",
        "B": "-7156.968",
        "C": "-5.201278",
        "D": "1.288938E-07",
        "E": "2",
        "Tmin": "234.15",
        "Tmax": "606.6"
    },
    "HeatOfVaporization": {
        "eqno": "106",
        "A": "6.726896E+07",
        "B": "0.830475",
        "C": "-1.256385",
        "D": "1.592723",
        "E": "-0.756362",
        "Tmin": "234.15",
        "Tmax": "587"
    },
    "SolidHeatCapacityCp": {
        "eqno": "102",
        "A": "2320",
        "B": "0.79267",
        "C": "0",
        "D": "0",
        "Tmin": "50",
        "Tmax": "234.15"
    },
    "LiquidHeatCapacityCp": {
        "eqno": "16",
        "A": "215140",
        "B": "447.78",
        "C": "3.9106",
        "D": "0.020539",
        "E": "-0.000013511",
        "Tmin": "234.15",
        "Tmax": "480"
    },
    "IdealGasHeatCapacityCp": {
        "eqno": "16",
        "A": "122140",
        "B": "-668.77",
        "C": "13.117",
        "D": "-0.0000064986",
        "E": "-3.4969E-08",
        "Tmin": "200",
        "Tmax": "1500"
    },
    "SecondVirialCoefficient": {
        "eqno": "104",
        "A": "0.29056",
        "B": "-339.49",
        "C": "-76.497",
        "D": "-41160",
        "E": "60961",
        "Tmin": "303.3",
        "Tmax": "1500"
    },
    "LiquidViscosity": {
        "eqno": "101",
        "A": "-11.982",
        "B": "1284.2",
        "C": "0.095491",
        "D": "-8.1894E-07",
        "E": "2",
        "Tmin": "234.15",
        "Tmax": "505"
    },
    "VaporViscosity": {
        "eqno": "102",
        "A": "1.4757E-07",
        "B": "0.71999",
        "C": "184.44",
        "D": "-6805",
        "Tmin": "234.15",
        "Tmax": "1000"
    },
    "LiquidThermalConductivity": {
        "eqno": "16",
        "A": "-0.025728",
        "B": "-61.893",
        "C": "-0.97852",
        "D": "-0.0021604",
        "E": "1.2683E-07",
        "Tmin": "234.15",
        "Tmax": "553.15"
    },
    "VaporThermalConductivity": {
        "eqno": "102",
        "A": "1201.8",
        "B": "1.0398",
        "C": "1.4113E+10",
        "D": "-9.6162E+10",
        "Tmin": "234.15",
        "Tmax": "1000"
    },
    "SurfaceTension": {
        "eqno": "16",
        "A": "-0.011218",
        "B": "48.92",
        "C": "-3.2612",
        "D": "0.00080836",
        "E": "-0.0000049917",
        "Tmin": "234.15",
        "Tmax": "587"
    },
    "RPPHeatCapacityCp": {
        "eqno": "4",
        "A": "35513",
        "B": "545.55",
        "C": "-0.2495",
        "D": "0.000035433",
        "Tmin": "200",
        "Tmax": "1500"
    },
    "AntoineVaporPressure": {
        "eqno": "10",
        "A": "21.049",
        "B": "3293.7",
        "C": "-74.523",
        "Tmin": "363.15",
        "Tmax": "540"
    },
    "LiquidViscosityRPS": {
        "eqno": "12",
        "A": "-3.2585",
        "B": "-0.012873",
        "Tmin": "234.15",
        "Tmax": "421.15"
    },
    "COSTALDVolume": "0.434587",
    "DiameterLJ": "7.34622E-10",
    "EnergyLJ": "272.5799",
    "RacketParameter": "0.251",
    "FullerVolume": "149.75",
    "MatthiasCopemanC2": "0",
    "Parachor": "0.055992",
    "SpecificGravity": "0.823035",
    "Charge": "0",
    "CostaldAcentricFactor": "0.407565",
    "WilsonVolume": "0.140257",
    "UniquacR": "5.2711",
    "UniquacQ": "4.496",
    "MatthiasCopemanC3": "0",
    "ChaoSeaderAcentricFactor": "0.407565",
    "ChaoSeaderSolubilityParameter": "17940",
    "ChaoSeaderLiquidVolume": "0.140257",
    "UnifacVLE": {
        "group": "1"
    },
    "UnifacLLE": {
        "group": "1"
    },
    "Asog": {
        "group": "1"
    },
    "Umr": {
        "group": "1"
    },
    "ModifiedUnifac": {
        "group": "1"
    },
    "CAS": "106-35-4",
    "Smiles": "CCC(=O)CCCC"
}