{
    "LibraryIndex": "19",
    "CompoundID": "3-methylhexane",
    "StructureFormula": "CH3CH2CH(CH3)CH2CH2CH3",
    "Family": "2",
    "CriticalTemperature": "535.2",
    "CriticalPressure": "2810000",
    "CriticalVolume": "0.404",
    "CriticalCompressibility": "0.255",
    "NormalBoilingPointTemperature": "365",
    "NormalMeltingPointTemperature": "153.75",
    "TriplePointTemperature": "153.75",
    "TriplePointPressure": "0.00321303",
    "MolecularWeight": "100.202",
    "LiquidVolumeAtNormalBoilingPoint": "0.14674",
    "AcentricityFactor": "0.323",
    "RadiusOfGyration": "4.078E-10",
    "SolubilityParameter": "14950",
    "DipoleMoment": "0",
    "VanDerWaalsVolume": "0.07848",
    "VanDerWaalsArea": "1.098E+09",
    "HeatOfFormation": "-1.9133E+08",
    "GibbsEnergyOfFormation": "5080000",
    "AbsEntropy": "425930",
    "HeatOfFusionAtMeltingPoint": "9460000",
    "MatthiasCopemanC1": "1.0009",
    "HeatOfCombustion": "-4.46177E+09",
    "SolidDensity": {
        "eqno": "2",
        "A": "9.934",
        "B": "-0.007197",
        "C": "0",
        "D": "0",
        "E": "0",
        "Tmin": "61.5",
        "Tmax": "153.75"
    },
    "LiquidDensity": {
        "eqno": "105",
        "A": "0.53784",
        "B": "0.24926",
        "C": "535.2",
        "D": "0.22945",
        "Tmin": "153.75",
        "Tmax": "535.19"
    },
    "VaporPressure": {
        "eqno": "101",
        "A": "86.76736",
        "B": "-6773.074",
        "C": "-9.77749",
        "D": "7.535909E-06",
        "E": "2",
        "Tmin": "153.75",
        "Tmax": "535.2"
    },
    "HeatOfVaporization": {
        "eqno": "106",
        "A": "5.817768E+07",
        "B": "1.085699",
        "C": "-1.05321",
        "D": "0.37877",
        "E": "0.0254378",
        "Tmin": "153.75",
        "Tmax": "515.12"
    },
    "SolidHeatCapacityCp": {
        "eqno": "100",
        "A": "-60717",
        "B": "5410",
        "C": "-46.69",
        "D": "0.17474",
        "E": "-0.00023062",
        "Tmin": "89.2",
        "Tmax": "289.2"
    },
    "LiquidHeatCapacityCp": {
        "eqno": "16",
        "A": "151720",
        "B": "437.07",
        "C": "3.0907",
        "D": "0.032504",
        "E": "-0.000034822",
        "Tmin": "153.75",
        "Tmax": "365"
    },
    "IdealGasHeatCapacityCp": {
        "eqno": "16",
        "A": "80171",
        "B": "-511.41",
        "C": "12.979",
        "D": "0.00025345",
        "E": "-8.5984E-08",
        "Tmin": "200",
        "Tmax": "1500"
    },
    "SecondVirialCoefficient": {
        "eqno": "104",
        "A": "0.24147",
        "B": "-297.07",
        "C": "-38.97",
        "D": "-4831.4",
        "E": "7213.9",
        "Tmin": "267",
        "Tmax": "1947"
    },
    "LiquidViscosity": {
        "eqno": "101",
        "A": "-11.794",
        "B": "999.53",
        "C": "0.086997",
        "D": "-2.3727E-07",
        "E": "2",
        "Tmin": "153.75",
        "Tmax": "400"
    },
    "VaporViscosity": {
        "eqno": "102",
        "A": "4.5226E-07",
        "B": "0.55481",
        "C": "210.53",
        "D": "14.061",
        "Tmin": "153.75",
        "Tmax": "1000"
    },
    "LiquidThermalConductivity": {
        "eqno": "16",
        "A": "-0.14432",
        "B": "11.474",
        "C": "-1.2132",
        "D": "-0.00022172",
        "E": "-0.0000010949",
        "Tmin": "153.75",
        "Tmax": "425"
    },
    "VaporThermalConductivity": {
        "eqno": "102",
        "A": "0.000041038",
        "B": "1.1288",
        "C": "-121.44",
        "D": "150080",
        "Tmin": "153.75",
        "Tmax": "1000"
    },
    "SurfaceTension": {
        "eqno": "16",
        "A": "-0.014185",
        "B": "14.535",
        "C": "-2.9491",
        "D": "-0.00055881",
        "E": "-0.0000037071",
        "Tmin": "153.75",
        "Tmax": "515.12"
    },
    "RPPHeatCapacityCp": {
        "eqno": "4",
        "A": "-9515.9",
        "B": "684.74",
        "C": "-0.35808",
        "D": "0.000070956",
        "Tmin": "200",
        "Tmax": "1500"
    },
    "RelativeStaticPermittivity": {
        "eqno": "120",
        "A": "-1.404923",
        "B": "-950",
        "C": "-5.7",
        "Tmin": "274.15",
        "Tmax": "444.15"
    },
    "AntoineVaporPressure": {
        "eqno": "10",
        "A": "20.869",
        "B": "2945.4",
        "C": "-49.691",
        "Tmin": "325.5",
        "Tmax": "474.97"
    },
    "LiquidViscosityRPS": {
        "eqno": "12",
        "A": "-2.8534",
        "B": "-0.016863",
        "Tmin": "153.75",
        "Tmax": "365"
    },
    "COSTALDVolume": "0.425893",
    "DiameterLJ": "7.109797E-10",
    "EnergyLJ": "255.2548",
    "RacketParameter": "0.255",
    "FullerVolume": "148.26",
    "MatthiasCopemanC2": "-0.35301",
    "Parachor": "0.0540085",
    "SpecificGravity": "0.692371",
    "Charge": "0",
    "CostaldAcentricFactor": "0.323",
    "WilsonVolume": "0.14674",
    "UniquacR": "5.1734",
    "UniquacQ": "4.392",
    "ApiSrkS2": "-0.002806",
    "MatthiasCopemanC3": "0.7712",
    "ChaoSeaderAcentricFactor": "0.323",
    "ChaoSeaderSolubilityParameter": "14950",
    "ChaoSeaderLiquidVolume": "0.14674",
    "UnifacVLE": {
        "group": "1"
    },
    "UnifacLLE": {
        "group": "1"
    },
    "Asog": {
        "group": "1"
    },
    "GCmethod": {
        "group": "1"
    },
    "Umr": {
        "group": "1"
    },
    "ModifiedUnifac": {
        "group": "1"
    },
    "CAS": "589-34-4",
    "Smiles": "CCC(C)CCC"
}