{
    "LibraryIndex": "85",
    "CompoundID": "3-methylnonane",
    "StructureFormula": "CH3CH2CH(CH3)(CH2)5CH3",
    "Family": "2",
    "CriticalTemperature": "613.7",
    "CriticalPressure": "2140000",
    "CriticalVolume": "0.5904",
    "CriticalCompressibility": "0.247",
    "NormalBoilingPointTemperature": "440.95",
    "NormalMeltingPointTemperature": "188.35",
    "TriplePointTemperature": "188.35",
    "TriplePointPressure": "0.000565366",
    "MolecularWeight": "142.2817",
    "LiquidVolumeAtNormalBoilingPoint": "0.195076",
    "AcentricityFactor": "0.464925",
    "RadiusOfGyration": "5.286E-10",
    "SolubilityParameter": "15470",
    "DipoleMoment": "0",
    "VanDerWaalsVolume": "0.10917",
    "VanDerWaalsArea": "1.503E+09",
    "HeatOfFormation": "-2.544E+08",
    "GibbsEnergyOfFormation": "2.88E+07",
    "AbsEntropy": "543900",
    "HeatOfFusionAtMeltingPoint": "1.88E+07",
    "HeatOfCombustion": "-6.291E+09",
    "SolidDensity": {
        "eqno": "2",
        "A": "7.1736",
        "B": "-0.0042229",
        "C": "0",
        "D": "0",
        "E": "0",
        "Tmin": "75.34",
        "Tmax": "188.35"
    },
    "LiquidDensity": {
        "eqno": "105",
        "A": "0.19012",
        "B": "0.17319",
        "C": "613.7",
        "D": "0.19349",
        "Tmin": "188.35",
        "Tmax": "613"
    },
    "VaporPressure": {
        "eqno": "101",
        "A": "90.738",
        "B": "-8476.8",
        "C": "-10.023",
        "D": "0.0000053448",
        "E": "2",
        "Tmin": "188.35",
        "Tmax": "613"
    },
    "HeatOfVaporization": {
        "eqno": "106",
        "A": "8.354164E+07",
        "B": "1.024481",
        "C": "-0.0908156",
        "D": "-1.228122",
        "E": "0.762381",
        "Tmin": "188.35",
        "Tmax": "613"
    },
    "SolidHeatCapacityCp": {
        "eqno": "100",
        "A": "622690",
        "B": "-20288",
        "C": "276.93",
        "D": "-1.5699",
        "E": "0.0032518",
        "Tmin": "80",
        "Tmax": "180"
    },
    "LiquidHeatCapacityCp": {
        "eqno": "16",
        "A": "78506",
        "B": "74.892",
        "C": "11.023",
        "D": "0.0040568",
        "E": "-0.0000015927",
        "Tmin": "188.35",
        "Tmax": "580"
    },
    "IdealGasHeatCapacityCp": {
        "eqno": "16",
        "A": "133050",
        "B": "-599.42",
        "C": "13.53",
        "D": "-0.000017353",
        "E": "-3.363E-09",
        "Tmin": "150",
        "Tmax": "1500"
    },
    "SecondVirialCoefficient": {
        "eqno": "104",
        "A": "0.33234",
        "B": "-422.27",
        "C": "-103.89",
        "D": "-20755",
        "E": "19060",
        "Tmin": "306.5",
        "Tmax": "1500"
    },
    "LiquidViscosity": {
        "eqno": "101",
        "A": "-12.922",
        "B": "1267.3",
        "C": "0.28159",
        "D": "-8.3807E-07",
        "E": "2",
        "Tmin": "188.35",
        "Tmax": "490.96"
    },
    "VaporViscosity": {
        "eqno": "102",
        "A": "6.1879E-07",
        "B": "0.49638",
        "C": "289.26",
        "D": "-877.62",
        "Tmin": "188.35",
        "Tmax": "1000"
    },
    "LiquidThermalConductivity": {
        "eqno": "16",
        "A": "-0.1781",
        "B": "10.557",
        "C": "-1.078",
        "D": "-0.00023148",
        "E": "-6.8221E-07",
        "Tmin": "188.35",
        "Tmax": "490"
    },
    "VaporThermalConductivity": {
        "eqno": "102",
        "A": "0.000033407",
        "B": "1.1338",
        "C": "-162.76",
        "D": "171650",
        "Tmin": "188.35",
        "Tmax": "1000"
    },
    "SurfaceTension": {
        "eqno": "16",
        "A": "-0.01117",
        "B": "45.677",
        "C": "-3.2566",
        "D": "0.00030403",
        "E": "-0.0000040378",
        "Tmin": "188.35",
        "Tmax": "613"
    },
    "RPPHeatCapacityCp": {
        "eqno": "4",
        "A": "6363.2",
        "B": "899.08",
        "C": "-0.44378",
        "D": "0.000077366",
        "Tmin": "150",
        "Tmax": "1500"
    },
    "AntoineVaporPressure": {
        "eqno": "10",
        "A": "21.006",
        "B": "3498.3",
        "C": "-71.962",
        "Tmin": "370.15",
        "Tmax": "545.95"
    },
    "LiquidViscosityRPS": {
        "eqno": "12",
        "A": "-2.7344",
        "B": "-0.013957",
        "Tmin": "188.35",
        "Tmax": "440.95"
    },
    "COSTALDVolume": "0.616046",
    "DiameterLJ": "8.382832E-10",
    "EnergyLJ": "260.9626",
    "RacketParameter": "0.247",
    "FullerVolume": "209.82",
    "Parachor": "0.0754856",
    "SpecificGravity": "0.736955",
    "Charge": "0",
    "CostaldAcentricFactor": "0.464925",
    "WilsonVolume": "0.195076",
    "UniquacR": "7.196599",
    "UniquacQ": "6.012",
    "ChaoSeaderAcentricFactor": "0.464925",
    "ChaoSeaderSolubilityParameter": "15470",
    "ChaoSeaderLiquidVolume": "0.195076",
    "UnifacVLE": {
        "group": "1"
    },
    "UnifacLLE": {
        "group": "1"
    },
    "Asog": {
        "group": "1"
    },
    "GCmethod": {
        "group": "1"
    },
    "Umr": {
        "group": "1"
    },
    "ModifiedUnifac": {
        "group": "1"
    },
    "CAS": "5911-04-6",
    "Smiles": "CCC(C)CCCCCC"
}