{
    "LibraryIndex": "39",
    "CompoundID": "3-methyl-3-ethylpentane",
    "StructureFormula": "CH3CH2C(CH3)(CH2CH3)CH2CH3",
    "Family": "4",
    "CriticalTemperature": "576.5",
    "CriticalPressure": "2810000",
    "CriticalVolume": "0.4551",
    "CriticalCompressibility": "0.267",
    "NormalBoilingPointTemperature": "391.42",
    "NormalMeltingPointTemperature": "182.28",
    "TriplePointTemperature": "182.28",
    "TriplePointPressure": "0.0625263",
    "MolecularWeight": "114.2285",
    "LiquidVolumeAtNormalBoilingPoint": "0.15788",
    "AcentricityFactor": "0.305",
    "RadiusOfGyration": "3.928E-10",
    "SolubilityParameter": "15060",
    "DipoleMoment": "0",
    "VanDerWaalsVolume": "0.0886999",
    "VanDerWaalsArea": "1.253E+09",
    "HeatOfFormation": "-2.1485E+08",
    "GibbsEnergyOfFormation": "2.288E+07",
    "AbsEntropy": "432960",
    "HeatOfFusionAtMeltingPoint": "1.08E+07",
    "MatthiasCopemanC1": "0.93763",
    "HeatOfCombustion": "-5.0716E+09",
    "SolidDensity": {
        "eqno": "2",
        "A": "8.9635",
        "B": "-0.0054551",
        "C": "0",
        "D": "0",
        "E": "0",
        "Tmin": "72.91",
        "Tmax": "182.28"
    },
    "LiquidDensity": {
        "eqno": "105",
        "A": "0.59884",
        "B": "0.27253",
        "C": "576.5",
        "D": "0.28169",
        "Tmin": "182.28",
        "Tmax": "576.5"
    },
    "VaporPressure": {
        "eqno": "101",
        "A": "85.77668",
        "B": "-7097.92",
        "C": "-9.572218",
        "D": "6.70781E-06",
        "E": "2",
        "Tmin": "182.28",
        "Tmax": "576.5"
    },
    "HeatOfVaporization": {
        "eqno": "106",
        "A": "6.3775E+07",
        "B": "1.5194",
        "C": "-2.4569",
        "D": "2.0687",
        "E": "-0.69375",
        "Tmin": "182.28",
        "Tmax": "576.5"
    },
    "SolidHeatCapacityCp": {
        "eqno": "1",
        "A": "223200",
        "Tmin": "0",
        "Tmax": "576.5"
    },
    "LiquidHeatCapacityCp": {
        "eqno": "16",
        "A": "77769",
        "B": "172.95",
        "C": "9.182",
        "D": "0.01021",
        "E": "-0.0000086615",
        "Tmin": "201.78",
        "Tmax": "381.78"
    },
    "IdealGasHeatCapacityCp": {
        "eqno": "16",
        "A": "89715",
        "B": "-509.11",
        "C": "13.135",
        "D": "0.00024858",
        "E": "-7.767E-08",
        "Tmin": "150",
        "Tmax": "1500"
    },
    "SecondVirialCoefficient": {
        "eqno": "104",
        "A": "0.28104",
        "B": "-352.27",
        "C": "-50.671",
        "D": "-6199.9",
        "E": "-111.85",
        "Tmin": "249",
        "Tmax": "1500"
    },
    "LiquidViscosity": {
        "eqno": "101",
        "A": "-18.59",
        "B": "1270.3",
        "C": "1.2467",
        "D": "-0.0000036226",
        "E": "2",
        "Tmin": "182.28",
        "Tmax": "400"
    },
    "VaporViscosity": {
        "eqno": "102",
        "A": "7.5822E-07",
        "B": "0.50218",
        "C": "361.22",
        "D": "-3635.6",
        "Tmin": "182.28",
        "Tmax": "1000"
    },
    "LiquidThermalConductivity": {
        "eqno": "16",
        "A": "-0.037427",
        "B": "7.7785",
        "C": "-1.7161",
        "D": "-0.00028317",
        "E": "-0.0000017728",
        "Tmin": "182.28",
        "Tmax": "391.42"
    },
    "VaporThermalConductivity": {
        "eqno": "102",
        "A": "0.000021773",
        "B": "1.2197",
        "C": "-136.64",
        "D": "138470",
        "Tmin": "182.28",
        "Tmax": "1000"
    },
    "SurfaceTension": {
        "eqno": "16",
        "A": "-0.010536",
        "B": "39.464",
        "C": "-3.2983",
        "D": "0.00058327",
        "E": "-0.0000050348",
        "Tmin": "182.28",
        "Tmax": "576.5"
    },
    "RPPHeatCapacityCp": {
        "eqno": "100",
        "A": "-11225",
        "B": "736.53",
        "C": "-0.16305",
        "D": "-0.00026099",
        "E": "1.4875E-07",
        "Tmin": "200",
        "Tmax": "1000"
    },
    "RelativeStaticPermittivity": {
        "eqno": "120",
        "A": "-1.404923",
        "B": "-950",
        "C": "-5.7",
        "Tmin": "274.15",
        "Tmax": "444.15"
    },
    "AntoineVaporPressure": {
        "eqno": "10",
        "A": "20.91",
        "B": "3242",
        "C": "-45.986",
        "Tmin": "348.27",
        "Tmax": "514.25"
    },
    "LiquidViscosityRPS": {
        "eqno": "12",
        "A": "-2.9795",
        "B": "-0.014829",
        "Tmin": "182.28",
        "Tmax": "391.42"
    },
    "COSTALDVolume": "0.486848",
    "DiameterLJ": "7.000576E-10",
    "EnergyLJ": "324.4539",
    "RacketParameter": "0.267",
    "FullerVolume": "168.78",
    "MatthiasCopemanC2": "0",
    "Parachor": "0.0603583",
    "SpecificGravity": "0.731726",
    "Charge": "0",
    "CostaldAcentricFactor": "0.305",
    "WilsonVolume": "0.15788",
    "UniquacR": "5.8471",
    "UniquacQ": "5.012",
    "ApiSrkS2": "-0.004598",
    "MatthiasCopemanC3": "0",
    "ChaoSeaderAcentricFactor": "0.305",
    "ChaoSeaderSolubilityParameter": "15060",
    "ChaoSeaderLiquidVolume": "0.15788",
    "UnifacVLE": {
        "group": "1"
    },
    "UnifacLLE": {
        "group": "1"
    },
    "Asog": {
        "group": "1"
    },
    "GCmethod": {
        "group": "1"
    },
    "Umr": {
        "group": "1"
    },
    "ModifiedUnifac": {
        "group": "1"
    },
    "CAS": "1067-08-9",
    "Smiles": "CCC(C)(CC)CC"
}