{
    "LibraryIndex": "92",
    "CompoundID": "3-methyloctane",
    "StructureFormula": "CH3CH2CH(CH3)(CH2)4CH3",
    "Family": "2",
    "CriticalTemperature": "590.15",
    "CriticalPressure": "2340000",
    "CriticalVolume": "0.529",
    "CriticalCompressibility": "0.252",
    "NormalBoilingPointTemperature": "417.38",
    "NormalMeltingPointTemperature": "165.55",
    "TriplePointTemperature": "165.55",
    "TriplePointPressure": "0.0000898613",
    "MolecularWeight": "128.2551",
    "LiquidVolumeAtNormalBoilingPoint": "0.178944",
    "AcentricityFactor": "0.412346",
    "RadiusOfGyration": "4.791E-10",
    "SolubilityParameter": "15380",
    "DipoleMoment": "0",
    "VanDerWaalsVolume": "0.09894",
    "VanDerWaalsArea": "1.368E+09",
    "HeatOfFormation": "-2.336E+08",
    "GibbsEnergyOfFormation": "2.17E+07",
    "AbsEntropy": "501660",
    "HeatOfFusionAtMeltingPoint": "1.7E+07",
    "HeatOfCombustion": "-5.68128E+09",
    "SolidDensity": {
        "eqno": "2",
        "A": "8.0428",
        "B": "-0.0054796",
        "C": "0",
        "D": "0",
        "E": "0",
        "Tmin": "66.22",
        "Tmax": "165.55"
    },
    "LiquidDensity": {
        "eqno": "105",
        "A": "0.4999",
        "B": "0.26438",
        "C": "590.15",
        "D": "0.29155",
        "Tmin": "165.55",
        "Tmax": "567.8"
    },
    "VaporPressure": {
        "eqno": "101",
        "A": "169.345",
        "B": "-11170.36",
        "C": "-22.26865",
        "D": "0.0000190112",
        "E": "2",
        "Tmin": "165.55",
        "Tmax": "590.15"
    },
    "HeatOfVaporization": {
        "eqno": "106",
        "A": "6.3378E+07",
        "B": "0.67667",
        "C": "-0.53996",
        "D": "0.45608",
        "E": "-0.18958",
        "Tmin": "165.55",
        "Tmax": "567.8"
    },
    "SolidHeatCapacityCp": {
        "eqno": "1",
        "A": "249210",
        "Tmin": "0",
        "Tmax": "590.15"
    },
    "LiquidHeatCapacityCp": {
        "eqno": "16",
        "A": "39163",
        "B": "25.328",
        "C": "11.626",
        "D": "0.0021572",
        "E": "2.6369E-07",
        "Tmin": "165",
        "Tmax": "560"
    },
    "IdealGasHeatCapacityCp": {
        "eqno": "16",
        "A": "118620",
        "B": "-596.81",
        "C": "13.418",
        "D": "0.0000088283",
        "E": "-1.2271E-08",
        "Tmin": "150",
        "Tmax": "1500"
    },
    "SecondVirialCoefficient": {
        "eqno": "104",
        "A": "0.30664",
        "B": "-390.98",
        "C": "-75.702",
        "D": "-18831",
        "E": "29822",
        "Tmin": "295.07",
        "Tmax": "1885.08"
    },
    "LiquidViscosity": {
        "eqno": "101",
        "A": "-11.252",
        "B": "1147.6",
        "C": "-0.021999",
        "D": "4.3706E-08",
        "E": "2",
        "Tmin": "165.55",
        "Tmax": "472.12"
    },
    "VaporViscosity": {
        "eqno": "102",
        "A": "4.9482E-07",
        "B": "0.53152",
        "C": "245.99",
        "D": "4.1109",
        "Tmin": "165.55",
        "Tmax": "1000"
    },
    "LiquidThermalConductivity": {
        "eqno": "16",
        "A": "-0.1642",
        "B": "10.91",
        "C": "-1.1265",
        "D": "-0.00023366",
        "E": "-7.9637E-07",
        "Tmin": "165.55",
        "Tmax": "470"
    },
    "VaporThermalConductivity": {
        "eqno": "102",
        "A": "0.000040968",
        "B": "1.1096",
        "C": "-178.72",
        "D": "180220",
        "Tmin": "165.55",
        "Tmax": "1000"
    },
    "SurfaceTension": {
        "eqno": "16",
        "A": "-0.011116",
        "B": "17.733",
        "C": "-2.999",
        "D": "-0.00046999",
        "E": "-0.0000037171",
        "Tmin": "165.55",
        "Tmax": "567.8"
    },
    "RPPHeatCapacityCp": {
        "eqno": "4",
        "A": "3693.9",
        "B": "812.59",
        "C": "-0.39408",
        "D": "0.000066664",
        "Tmin": "150",
        "Tmax": "1500"
    },
    "AntoineVaporPressure": {
        "eqno": "10",
        "A": "20.613",
        "B": "3114.3",
        "C": "-74.619",
        "Tmin": "355.15",
        "Tmax": "523.11"
    },
    "LiquidViscosityRPS": {
        "eqno": "12",
        "A": "-2.5467",
        "B": "-0.015661",
        "Tmin": "165.55",
        "Tmax": "417.38"
    },
    "COSTALDVolume": "0.550226",
    "DiameterLJ": "7.889501E-10",
    "EnergyLJ": "269.7227",
    "RacketParameter": "0.252",
    "FullerVolume": "189.3",
    "Parachor": "0.0683818",
    "SpecificGravity": "0.724722",
    "Charge": "0",
    "CostaldAcentricFactor": "0.412346",
    "WilsonVolume": "0.178944",
    "UniquacR": "6.5222",
    "UniquacQ": "5.472",
    "ChaoSeaderAcentricFactor": "0.412346",
    "ChaoSeaderSolubilityParameter": "15380",
    "ChaoSeaderLiquidVolume": "0.178944",
    "UnifacVLE": {
        "group": "1"
    },
    "UnifacLLE": {
        "group": "1"
    },
    "Asog": {
        "group": "1"
    },
    "GCmethod": {
        "group": "1"
    },
    "Umr": {
        "group": "1"
    },
    "ModifiedUnifac": {
        "group": "1"
    },
    "CAS": "2216-33-3",
    "Smiles": "CCC(C)CCCCC"
}