{
    "LibraryIndex": "29",
    "CompoundID": "3-methylheptane",
    "StructureFormula": "CH3CH2CH(CH3)(CH2)3CH3",
    "Family": "2",
    "CriticalTemperature": "563.6",
    "CriticalPressure": "2550000",
    "CriticalVolume": "0.4711",
    "CriticalCompressibility": "0.253",
    "NormalBoilingPointTemperature": "392.08",
    "NormalMeltingPointTemperature": "152.65",
    "TriplePointTemperature": "152.6",
    "TriplePointPressure": "0.0000523002",
    "MolecularWeight": "114.2285",
    "LiquidVolumeAtNormalBoilingPoint": "0.16278",
    "AcentricityFactor": "0.371",
    "RadiusOfGyration": "4.49E-10",
    "SolubilityParameter": "15180",
    "DipoleMoment": "0",
    "VanDerWaalsVolume": "0.08871",
    "VanDerWaalsArea": "1.233E+09",
    "HeatOfFormation": "-2.1251E+08",
    "GibbsEnergyOfFormation": "1.275E+07",
    "AbsEntropy": "465510",
    "HeatOfFusionAtMeltingPoint": "1.163E+07",
    "MatthiasCopemanC1": "1.0872",
    "HeatOfCombustion": "-5.0721E+09",
    "SolidDensity": {
        "eqno": "2",
        "A": "8.8888",
        "B": "-0.0064444",
        "C": "0",
        "D": "0",
        "E": "0",
        "Tmin": "61.04",
        "Tmax": "152.6"
    },
    "LiquidDensity": {
        "eqno": "105",
        "A": "0.48768",
        "B": "0.25064",
        "C": "563.66",
        "D": "0.24544",
        "Tmin": "152.6",
        "Tmax": "563.65"
    },
    "VaporPressure": {
        "eqno": "101",
        "A": "94.76732",
        "B": "-7652.539",
        "C": "-10.86325",
        "D": "7.450521E-06",
        "E": "2",
        "Tmin": "152.6",
        "Tmax": "563.67"
    },
    "HeatOfVaporization": {
        "eqno": "106",
        "A": "6.899021E+07",
        "B": "1.39863",
        "C": "-1.771662",
        "D": "1.093723",
        "E": "-0.270846",
        "Tmin": "152.6",
        "Tmax": "548"
    },
    "SolidHeatCapacityCp": {
        "eqno": "100",
        "A": "-22283",
        "B": "1860.6",
        "C": "-6.4838",
        "D": "-0.0071294",
        "E": "0.00010229",
        "Tmin": "30",
        "Tmax": "152.6"
    },
    "LiquidHeatCapacityCp": {
        "eqno": "16",
        "A": "137930",
        "B": "50.329",
        "C": "9.9028",
        "D": "0.0059467",
        "E": "-0.0000024618",
        "Tmin": "107.25",
        "Tmax": "500"
    },
    "IdealGasHeatCapacityCp": {
        "eqno": "16",
        "A": "103080",
        "B": "-583.42",
        "C": "13.271",
        "D": "0.000052348",
        "E": "-2.126E-08",
        "Tmin": "150",
        "Tmax": "1500"
    },
    "SecondVirialCoefficient": {
        "eqno": "104",
        "A": "0.32697",
        "B": "-423.7",
        "C": "-35.42",
        "D": "-43617",
        "E": "102800",
        "Tmin": "281.8",
        "Tmax": "1799.84"
    },
    "LiquidViscosity": {
        "eqno": "101",
        "A": "-7.3817",
        "B": "976.23",
        "C": "-0.66335",
        "D": "0.0000021183",
        "E": "2",
        "Tmin": "152.6",
        "Tmax": "450.88"
    },
    "VaporViscosity": {
        "eqno": "102",
        "A": "0.0000069865",
        "B": "0.21161",
        "C": "854.03",
        "D": "-2592.5",
        "Tmin": "152.6",
        "Tmax": "1000"
    },
    "LiquidThermalConductivity": {
        "eqno": "16",
        "A": "-0.043161",
        "B": "22.706",
        "C": "-1.6829",
        "D": "-0.000063735",
        "E": "-0.0000020484",
        "Tmin": "152.6",
        "Tmax": "503.15"
    },
    "VaporThermalConductivity": {
        "eqno": "102",
        "A": "0.000042535",
        "B": "1.1138",
        "C": "-151.71",
        "D": "168420",
        "Tmin": "152.6",
        "Tmax": "1000"
    },
    "SurfaceTension": {
        "eqno": "16",
        "A": "-0.010132",
        "B": "18.511",
        "C": "-3.0971",
        "D": "-0.000087581",
        "E": "-0.0000046928",
        "Tmin": "152.6",
        "Tmax": "541.97"
    },
    "RPPHeatCapacityCp": {
        "eqno": "4",
        "A": "950.75",
        "B": "729.2",
        "C": "-0.35201",
        "D": "0.000060241",
        "Tmin": "150",
        "Tmax": "1500"
    },
    "AntoineVaporPressure": {
        "eqno": "10",
        "A": "20.965",
        "B": "3188.8",
        "C": "-54.285",
        "Tmin": "342.54",
        "Tmax": "506"
    },
    "LiquidViscosityRPS": {
        "eqno": "12",
        "A": "-2.4083",
        "B": "-0.017071",
        "Tmin": "152.6",
        "Tmax": "392.08"
    },
    "COSTALDVolume": "0.486909",
    "DiameterLJ": "7.554483E-10",
    "EnergyLJ": "261.2871",
    "RacketParameter": "0.253",
    "FullerVolume": "168.78",
    "MatthiasCopemanC2": "-0.46447",
    "Parachor": "0.06101",
    "SpecificGravity": "0.709859",
    "Charge": "0",
    "CostaldAcentricFactor": "0.371",
    "WilsonVolume": "0.16278",
    "UniquacR": "5.8478",
    "UniquacQ": "4.932",
    "ApiSrkS2": "-0.004039",
    "MatthiasCopemanC3": "0.98948",
    "ChaoSeaderAcentricFactor": "0.371",
    "ChaoSeaderSolubilityParameter": "15180",
    "ChaoSeaderLiquidVolume": "0.16278",
    "UnifacVLE": {
        "group": "1"
    },
    "UnifacLLE": {
        "group": "1"
    },
    "Asog": {
        "group": "1"
    },
    "GCmethod": {
        "group": "1"
    },
    "Umr": {
        "group": "1"
    },
    "ModifiedUnifac": {
        "group": "1"
    },
    "CAS": "589-81-1",
    "Smiles": "CCC(C)CCCC"
}