{
    "LibraryIndex": "1053",
    "CompoundID": "3-pentanone",
    "StructureFormula": "CH3CH2COCH2CH3",
    "Family": "26",
    "CriticalTemperature": "561.5",
    "CriticalPressure": "3730000",
    "CriticalVolume": "0.336",
    "CriticalCompressibility": "0.268",
    "NormalBoilingPointTemperature": "375.14",
    "NormalMeltingPointTemperature": "234.18",
    "TriplePointTemperature": "234.18",
    "TriplePointPressure": "73.4224",
    "MolecularWeight": "86.1323",
    "LiquidVolumeAtNormalBoilingPoint": "0.10641",
    "AcentricityFactor": "0.342",
    "RadiusOfGyration": "3.583E-10",
    "SolubilityParameter": "18410",
    "DipoleMoment": "9.41E-30",
    "VanDerWaalsVolume": "0.0595",
    "VanDerWaalsArea": "8.54E+08",
    "HeatOfFormation": "-2.579E+08",
    "GibbsEnergyOfFormation": "-1.344E+08",
    "AbsEntropy": "370000",
    "HeatOfFusionAtMeltingPoint": "1.159E+07",
    "MatthiasCopemanC1": "1.069",
    "HeatOfCombustion": "-2.8804E+09",
    "SolidDensity": {
        "eqno": "2",
        "A": "12.822",
        "B": "-0.0061115",
        "Tmin": "93.67",
        "Tmax": "234.18"
    },
    "LiquidDensity": {
        "eqno": "105",
        "A": "0.68664",
        "B": "0.23603",
        "C": "561.5",
        "D": "0.27471",
        "Tmin": "234.18",
        "Tmax": "543.75"
    },
    "VaporPressure": {
        "eqno": "101",
        "A": "58.885",
        "B": "-6044.5",
        "C": "-5.3259",
        "D": "0.0000023057",
        "E": "2",
        "Tmin": "234.18",
        "Tmax": "560.95"
    },
    "HeatOfVaporization": {
        "eqno": "106",
        "A": "5.083729E+07",
        "B": "0.764461",
        "C": "-0.828447",
        "D": "-0.00277131",
        "E": "0.530942",
        "Tmin": "234.18",
        "Tmax": "560.95"
    },
    "SolidHeatCapacityCp": {
        "eqno": "100",
        "A": "-6392",
        "B": "777.74",
        "C": "17.353",
        "D": "-0.29853",
        "E": "0.001372",
        "Tmin": "11.16",
        "Tmax": "119.45"
    },
    "LiquidHeatCapacityCp": {
        "eqno": "16",
        "A": "169130",
        "B": "405.25",
        "C": "3.0239",
        "D": "0.024087",
        "E": "-0.000018434",
        "Tmin": "233.15",
        "Tmax": "393.15"
    },
    "IdealGasHeatCapacityCp": {
        "eqno": "16",
        "A": "93124",
        "B": "-637.87",
        "C": "12.577",
        "D": "0.00022827",
        "E": "-1.0612E-07",
        "Tmin": "200",
        "Tmax": "1500"
    },
    "SecondVirialCoefficient": {
        "eqno": "104",
        "A": "0.13293",
        "B": "-126.32",
        "C": "-67.641",
        "D": "17238",
        "E": "-66712",
        "Tmin": "280.45",
        "Tmax": "1500"
    },
    "LiquidViscosity": {
        "eqno": "101",
        "A": "-1.367",
        "B": "550.49",
        "C": "-1.4469",
        "D": "4.9148E-07",
        "E": "2",
        "Tmin": "234.18",
        "Tmax": "375.14"
    },
    "VaporViscosity": {
        "eqno": "102",
        "A": "0.0000002611",
        "B": "0.65778",
        "C": "216.39",
        "D": "-3537.8",
        "Tmin": "234.18",
        "Tmax": "1000"
    },
    "LiquidThermalConductivity": {
        "eqno": "16",
        "A": "0.0080662",
        "B": "16.294",
        "C": "-1.6509",
        "D": "-0.0010676",
        "E": "-9.5001E-07",
        "Tmin": "187.86",
        "Tmax": "375.14"
    },
    "VaporThermalConductivity": {
        "eqno": "102",
        "A": "22.162",
        "B": "1.0028",
        "C": "1.8597E+08",
        "D": "9.2842E+08",
        "Tmin": "234.18",
        "Tmax": "1000"
    },
    "SurfaceTension": {
        "eqno": "16",
        "A": "-0.0083353",
        "B": "223.31",
        "C": "-5.0336",
        "D": "0.0065645",
        "E": "-0.000012203",
        "Tmin": "234.18",
        "Tmax": "560.95"
    },
    "RPPHeatCapacityCp": {
        "eqno": "100",
        "A": "67106",
        "B": "113.53",
        "C": "0.50885",
        "D": "-0.00069318",
        "E": "2.7047E-07",
        "Tmin": "200",
        "Tmax": "1000"
    },
    "RelativeStaticPermittivity": {
        "eqno": "120",
        "A": "-15.7804",
        "B": "-7700",
        "C": "-46.2",
        "Tmin": "154",
        "Tmax": "444.15"
    },
    "AntoineVaporPressure": {
        "eqno": "10",
        "A": "21.615",
        "B": "3357.7",
        "C": "-42.268",
        "Tmin": "337.37",
        "Tmax": "492.16"
    },
    "LiquidViscosityRPS": {
        "eqno": "13",
        "A": "-1.9137",
        "B": "-0.027945",
        "C": "0.000028415",
        "Tmin": "234.18",
        "Tmax": "375.14"
    },
    "COSTALDVolume": "0.3188",
    "DiameterLJ": "6.298875E-10",
    "EnergyLJ": "320.2936",
    "FullerVolume": "108.71",
    "MatthiasCopemanC2": "-0.45383",
    "Parachor": "0.0426",
    "SpecificGravity": "0.806",
    "Charge": "0",
    "CostaldAcentricFactor": "0.34599",
    "WilsonVolume": "0.106401",
    "UniquacR": "3.9223",
    "UniquacQ": "3.416",
    "MatthiasCopemanC3": "0.59305",
    "ChaoSeaderAcentricFactor": "0.344",
    "ChaoSeaderSolubilityParameter": "18259.5",
    "ChaoSeaderLiquidVolume": "0.106401",
    "UnifacVLE": {
        "group": "1"
    },
    "UnifacLLE": {
        "group": "1"
    },
    "Asog": {
        "group": "1"
    },
    "Umr": {
        "group": "1"
    },
    "ModifiedUnifac": {
        "group": "1"
    },
    "CAS": "96-22-0",
    "Smiles": "CCC(=O)CC"
}