{
    "LibraryIndex": "578",
    "CompoundID": "4-ethyl-m-xylene",
    "StructureFormula": "CH3CH2(C6H3)(CH3)2",
    "Family": "17",
    "CriticalTemperature": "665",
    "CriticalPressure": "2850000",
    "CriticalVolume": "0.456",
    "CriticalCompressibility": "0.251",
    "NormalBoilingPointTemperature": "461.59",
    "NormalMeltingPointTemperature": "210",
    "TriplePointTemperature": "210.27",
    "TriplePointPressure": "0.0181496",
    "MolecularWeight": "134.2182",
    "LiquidVolumeAtNormalBoilingPoint": "0.153864",
    "AcentricityFactor": "0.409",
    "RadiusOfGyration": "4.543E-10",
    "SolubilityParameter": "17650",
    "VanDerWaalsVolume": "0.0920399",
    "VanDerWaalsArea": "1.161E+09",
    "HeatOfFormation": "-3.08E+07",
    "GibbsEnergyOfFormation": "1.286E+08",
    "AbsEntropy": "436600",
    "HeatOfFusionAtMeltingPoint": "1.293E+07",
    "MatthiasCopemanC1": "1.09",
    "HeatOfCombustion": "-5.544E+09",
    "SolidDensity": {
        "eqno": "2",
        "A": "8.8871",
        "B": "-0.0047021",
        "C": "0",
        "D": "0",
        "E": "0",
        "Tmin": "84.11",
        "Tmax": "210.27"
    },
    "LiquidDensity": {
        "eqno": "105",
        "A": "0.53184",
        "B": "0.25635",
        "C": "665",
        "D": "0.29535",
        "Tmin": "210.27",
        "Tmax": "641.07"
    },
    "VaporPressure": {
        "eqno": "101",
        "A": "109.6",
        "B": "-9849.7",
        "C": "-12.73",
        "D": "0.0000063582",
        "E": "2",
        "Tmin": "210.27",
        "Tmax": "665"
    },
    "HeatOfVaporization": {
        "eqno": "106",
        "A": "6.586476E+07",
        "B": "0.958711",
        "C": "-1.952194",
        "D": "2.240006",
        "E": "-0.865941",
        "Tmin": "210.27",
        "Tmax": "641.07"
    },
    "SolidHeatCapacityCp": {
        "eqno": "1",
        "A": "214740",
        "Tmin": "0",
        "Tmax": "665"
    },
    "LiquidHeatCapacityCp": {
        "eqno": "16",
        "A": "95699",
        "B": "-84.431",
        "C": "11.066",
        "D": "0.0051032",
        "E": "-0.0000041785",
        "Tmin": "298.15",
        "Tmax": "461.59"
    },
    "IdealGasHeatCapacityCp": {
        "eqno": "16",
        "A": "90693",
        "B": "-533.27",
        "C": "13.139",
        "D": "0.00014143",
        "E": "-6.0863E-08",
        "Tmin": "298.15",
        "Tmax": "1500"
    },
    "SecondVirialCoefficient": {
        "eqno": "104",
        "A": "0.33624",
        "B": "-432.23",
        "C": "-105.71",
        "D": "-27857",
        "E": "4073.5",
        "Tmin": "332.5",
        "Tmax": "1500"
    },
    "LiquidViscosity": {
        "eqno": "101",
        "A": "-12.665",
        "B": "1419.5",
        "C": "0.18354",
        "D": "-0.0000003451",
        "E": "2",
        "Tmin": "210.27",
        "Tmax": "573"
    },
    "VaporViscosity": {
        "eqno": "102",
        "A": "0.0000037216",
        "B": "0.29591",
        "C": "752.65",
        "D": "-7.7443",
        "Tmin": "210.27",
        "Tmax": "1000"
    },
    "LiquidThermalConductivity": {
        "eqno": "16",
        "A": "-0.081171",
        "B": "5.0587",
        "C": "-1.4195",
        "D": "-0.00031748",
        "E": "-9.1756E-07",
        "Tmin": "210.27",
        "Tmax": "461.59"
    },
    "VaporThermalConductivity": {
        "eqno": "102",
        "A": "0.000083547",
        "B": "1.0482",
        "C": "520.64",
        "D": "45100",
        "Tmin": "210.27",
        "Tmax": "1000"
    },
    "SurfaceTension": {
        "eqno": "16",
        "A": "-0.015347",
        "B": "66.34",
        "C": "-3.091",
        "D": "0.00031864",
        "E": "-0.0000032686",
        "Tmin": "210.27",
        "Tmax": "641.07"
    },
    "RPPHeatCapacityCp": {
        "eqno": "4",
        "A": "-20399",
        "B": "799.64",
        "C": "-0.46931",
        "D": "0.00010452",
        "Tmin": "298.15",
        "Tmax": "1500"
    },
    "AntoineVaporPressure": {
        "eqno": "10",
        "A": "21.128",
        "B": "3744.2",
        "C": "-71.727",
        "Tmin": "400",
        "Tmax": "593.2"
    },
    "LiquidViscosityRPS": {
        "eqno": "12",
        "A": "-2.5864",
        "B": "-0.013635",
        "Tmin": "210.27",
        "Tmax": "461.59"
    },
    "COSTALDVolume": "0.507256",
    "DiameterLJ": "7.544402E-10",
    "EnergyLJ": "299.6126",
    "RacketParameter": "0.251",
    "FullerVolume": "173.04",
    "MatthiasCopemanC2": "0",
    "Parachor": "0.0648944",
    "SpecificGravity": "0.880761",
    "Charge": "0",
    "CostaldAcentricFactor": "0.409",
    "WilsonVolume": "0.153864",
    "UniquacR": "6.0672",
    "UniquacQ": "4.644",
    "MatthiasCopemanC3": "0",
    "ChaoSeaderAcentricFactor": "0.409",
    "ChaoSeaderSolubilityParameter": "17650",
    "ChaoSeaderLiquidVolume": "0.153864",
    "UnifacVLE": {
        "group": "1"
    },
    "UnifacLLE": {
        "group": "1"
    },
    "Asog": {
        "group": "3"
    },
    "GCmethod": {
        "group": "1"
    },
    "Umr": {
        "group": "1"
    },
    "ModifiedUnifac": {
        "group": "1"
    },
    "CAS": "874-41-9",
    "Smiles": "c1(CC)c(C)cc(C)cc1"
}