{
    "LibraryIndex": "1058",
    "CompoundID": "4-heptanone",
    "StructureFormula": "(CH3CH2CH2)2CO",
    "Family": "26",
    "CriticalTemperature": "595",
    "CriticalPressure": "2920000",
    "CriticalVolume": "0.421",
    "CriticalCompressibility": "0.253",
    "NormalBoilingPointTemperature": "417.15",
    "NormalMeltingPointTemperature": "240.65",
    "TriplePointTemperature": "240.65",
    "TriplePointPressure": "7.95766",
    "MolecularWeight": "114.1855",
    "LiquidVolumeAtNormalBoilingPoint": "0.140625",
    "AcentricityFactor": "0.471409",
    "RadiusOfGyration": "4.567E-10",
    "SolubilityParameter": "17410",
    "DipoleMoment": "8.34E-30",
    "VanDerWaalsVolume": "0.07996",
    "VanDerWaalsArea": "1.124E+09",
    "HeatOfFormation": "-3.01E+08",
    "GibbsEnergyOfFormation": "-1.196E+08",
    "AbsEntropy": "448600",
    "HeatOfFusionAtMeltingPoint": "1.86E+07",
    "MatthiasCopemanC1": "1.18",
    "HeatOfCombustion": "-4.09E+09",
    "SolidDensity": {
        "eqno": "100",
        "A": "9.6566",
        "B": "-0.0050159",
        "C": "0",
        "D": "0",
        "E": "0",
        "Tmin": "96.26",
        "Tmax": "240.65"
    },
    "LiquidDensity": {
        "eqno": "105",
        "A": "0.78297",
        "B": "0.29215",
        "C": "595",
        "D": "0.33209",
        "Tmin": "240.65",
        "Tmax": "582.98"
    },
    "VaporPressure": {
        "eqno": "101",
        "A": "121.5579",
        "B": "-9310.284",
        "C": "-14.85267",
        "D": "0.000010781",
        "E": "2",
        "Tmin": "240.65",
        "Tmax": "602"
    },
    "HeatOfVaporization": {
        "eqno": "106",
        "A": "6.630562E+07",
        "B": "0.51436",
        "C": "0.600897",
        "D": "-1.414428",
        "E": "0.688564",
        "Tmin": "240.65",
        "Tmax": "582.98"
    },
    "SolidHeatCapacityCp": {
        "eqno": "102",
        "A": "2320",
        "B": "0.79267",
        "C": "0",
        "D": "0",
        "Tmin": "50",
        "Tmax": "240.65"
    },
    "LiquidHeatCapacityCp": {
        "eqno": "16",
        "A": "209750",
        "B": "222.65",
        "C": "6.403",
        "D": "0.014092",
        "E": "-0.0000084677",
        "Tmin": "240",
        "Tmax": "480"
    },
    "IdealGasHeatCapacityCp": {
        "eqno": "16",
        "A": "121670",
        "B": "-659.01",
        "C": "13.093",
        "D": "0.000016432",
        "E": "-4.1637E-08",
        "Tmin": "200",
        "Tmax": "1500"
    },
    "SecondVirialCoefficient": {
        "eqno": "104",
        "A": "0.12631",
        "B": "-98.502",
        "C": "-131.43",
        "D": "74661",
        "E": "-250200",
        "Tmin": "287.5",
        "Tmax": "1500"
    },
    "LiquidViscosity": {
        "eqno": "101",
        "A": "-29.013",
        "B": "1989.1",
        "C": "2.6786",
        "D": "-0.0000019943",
        "E": "2",
        "Tmin": "240.65",
        "Tmax": "505"
    },
    "VaporViscosity": {
        "eqno": "102",
        "A": "1.5516E-07",
        "B": "0.71327",
        "C": "190.48",
        "D": "-6907.5",
        "Tmin": "240.65",
        "Tmax": "1000"
    },
    "LiquidThermalConductivity": {
        "eqno": "16",
        "A": "-0.084176",
        "B": "-5.3333",
        "C": "-1.1753",
        "D": "-0.00094427",
        "E": "-3.0728E-07",
        "Tmin": "240.65",
        "Tmax": "553.15"
    },
    "VaporThermalConductivity": {
        "eqno": "102",
        "A": "2007.9",
        "B": "1.0403",
        "C": "2.325E+10",
        "D": "-1.556E+11",
        "Tmin": "240.65",
        "Tmax": "1000"
    },
    "SurfaceTension": {
        "eqno": "16",
        "A": "-0.009316",
        "B": "8.2096",
        "C": "-3.0266",
        "D": "0.00040508",
        "E": "-0.0000054492",
        "Tmin": "240.65",
        "Tmax": "582.98"
    },
    "RPPHeatCapacityCp": {
        "eqno": "4",
        "A": "36724",
        "B": "544.28",
        "C": "-0.2504",
        "D": "0.000036307",
        "Tmin": "200",
        "Tmax": "1500"
    },
    "RelativeStaticPermittivity": {
        "eqno": "120",
        "A": "-11.21128",
        "B": "-5950",
        "C": "-35.7",
        "Tmin": "274.15",
        "Tmax": "444.15"
    },
    "AntoineVaporPressure": {
        "eqno": "10",
        "A": "21.277",
        "B": "3488.9",
        "C": "-59.687",
        "Tmin": "358.41",
        "Tmax": "529.73"
    },
    "LiquidViscosityRPS": {
        "eqno": "12",
        "A": "-3.4939",
        "B": "-0.012328",
        "Tmin": "240.65",
        "Tmax": "417.15"
    },
    "COSTALDVolume": "0.434587",
    "DiameterLJ": "7.276587E-10",
    "EnergyLJ": "275.8443",
    "RacketParameter": "0.253",
    "FullerVolume": "149.75",
    "MatthiasCopemanC2": "0",
    "Parachor": "0.0559243",
    "SpecificGravity": "0.821925",
    "Charge": "0",
    "CostaldAcentricFactor": "0.471409",
    "WilsonVolume": "0.140625",
    "UniquacR": "5.2711",
    "UniquacQ": "4.496",
    "MatthiasCopemanC3": "0",
    "ChaoSeaderAcentricFactor": "0.411976",
    "ChaoSeaderSolubilityParameter": "17410",
    "ChaoSeaderLiquidVolume": "0.140625",
    "UnifacVLE": {
        "group": "1"
    },
    "UnifacLLE": {
        "group": "1"
    },
    "Asog": {
        "group": "1"
    },
    "Umr": {
        "group": "1"
    },
    "ModifiedUnifac": {
        "group": "1"
    },
    "CAS": "123-19-3",
    "Smiles": "CCCC(=O)CCC"
}