{
    "LibraryIndex": "228",
    "CompoundID": "4-methyl-trans-2-pentene",
    "StructureFormula": "CH3CHCHCH(CH3)2",
    "Family": "11",
    "CriticalTemperature": "501",
    "CriticalPressure": "3220000",
    "CriticalVolume": "0.346",
    "CriticalCompressibility": "0.267",
    "NormalBoilingPointTemperature": "331.76",
    "NormalMeltingPointTemperature": "132.36",
    "TriplePointTemperature": "132.35",
    "TriplePointPressure": "0.000344783",
    "MolecularWeight": "84.15948",
    "LiquidVolumeAtNormalBoilingPoint": "0.126739",
    "AcentricityFactor": "0.255237",
    "RadiusOfGyration": "3.766E-10",
    "SolubilityParameter": "14730",
    "DipoleMoment": "3.63E-31",
    "VanDerWaalsVolume": "0.06473",
    "VanDerWaalsArea": "9.09E+08",
    "HeatOfFormation": "-5.43501E+07",
    "GibbsEnergyOfFormation": "7.43497E+07",
    "AbsEntropy": "368390",
    "HeatOfFusionAtMeltingPoint": "7154640",
    "HeatOfCombustion": "-3.7205E+09",
    "SolidDensity": {
        "eqno": "2",
        "A": "12.074",
        "B": "-0.0099849",
        "C": "0",
        "D": "0",
        "E": "0",
        "Tmin": "52.94",
        "Tmax": "132.35"
    },
    "LiquidDensity": {
        "eqno": "105",
        "A": "0.77321",
        "B": "0.26966",
        "C": "501",
        "D": "0.28578",
        "Tmin": "132.35",
        "Tmax": "501"
    },
    "VaporPressure": {
        "eqno": "101",
        "A": "81.691",
        "B": "-5972.8",
        "C": "-9.1408",
        "D": "0.0000081285",
        "E": "2",
        "Tmin": "132.35",
        "Tmax": "501"
    },
    "HeatOfVaporization": {
        "eqno": "106",
        "A": "5.3985E+07",
        "B": "1.4966",
        "C": "-2.4784",
        "D": "2.2857",
        "E": "-0.85991",
        "Tmin": "132.35",
        "Tmax": "501"
    },
    "SolidHeatCapacityCp": {
        "eqno": "1",
        "A": "156060",
        "Tmin": "0",
        "Tmax": "501"
    },
    "LiquidHeatCapacityCp": {
        "eqno": "16",
        "A": "22279",
        "B": "6.5061",
        "C": "10.859",
        "D": "0.0058182",
        "E": "-0.000006387",
        "Tmin": "132.35",
        "Tmax": "331.75"
    },
    "IdealGasHeatCapacityCp": {
        "eqno": "16",
        "A": "95377",
        "B": "-622.83",
        "C": "12.814",
        "D": "0.000074545",
        "E": "-3.6318E-08",
        "Tmin": "200",
        "Tmax": "1500"
    },
    "SecondVirialCoefficient": {
        "eqno": "104",
        "A": "0.19736",
        "B": "-224.61",
        "C": "-21.903",
        "D": "488.25",
        "E": "-2649.6",
        "Tmin": "250.5",
        "Tmax": "2000"
    },
    "LiquidViscosity": {
        "eqno": "101",
        "A": "-11.038",
        "B": "805.55",
        "C": "0.01464",
        "D": "-7.2359E-08",
        "E": "2",
        "Tmin": "132.35",
        "Tmax": "405"
    },
    "VaporViscosity": {
        "eqno": "102",
        "A": "7.4971E-07",
        "B": "0.50587",
        "C": "292.11",
        "D": "780.77",
        "Tmin": "331.75",
        "Tmax": "1000"
    },
    "LiquidThermalConductivity": {
        "eqno": "16",
        "A": "-0.02241",
        "B": "4.5423",
        "C": "-1.7038",
        "D": "-0.00048445",
        "E": "-0.0000024834",
        "Tmin": "132.35",
        "Tmax": "331.75"
    },
    "VaporThermalConductivity": {
        "eqno": "102",
        "A": "0.000062348",
        "B": "1.0772",
        "C": "-17.479",
        "D": "116240",
        "Tmin": "132.35",
        "Tmax": "1000"
    },
    "SurfaceTension": {
        "eqno": "16",
        "A": "-0.008865",
        "B": "28.019",
        "C": "-3.2795",
        "D": "0.00029139",
        "E": "-0.0000066732",
        "Tmin": "132.35",
        "Tmax": "501"
    },
    "RPPHeatCapacityCp": {
        "eqno": "4",
        "A": "23417",
        "B": "462.06",
        "C": "-0.22421",
        "D": "0.000039309",
        "Tmin": "200",
        "Tmax": "1500"
    },
    "AntoineVaporPressure": {
        "eqno": "10",
        "A": "20.694",
        "B": "2614",
        "C": "-46.685",
        "Tmin": "300.98",
        "Tmax": "442.79"
    },
    "LiquidViscosityRPS": {
        "eqno": "12",
        "A": "-3.1984",
        "B": "-0.017331",
        "Tmin": "132.35",
        "Tmax": "331.75"
    },
    "COSTALDVolume": "0.347048",
    "DiameterLJ": "6.389352E-10",
    "EnergyLJ": "281.9625",
    "RacketParameter": "0.267",
    "FullerVolume": "123.12",
    "Parachor": "0.0450719",
    "SpecificGravity": "0.673532",
    "Charge": "0",
    "CostaldAcentricFactor": "0.255237",
    "WilsonVolume": "0.126739",
    "UniquacR": "4.2669",
    "UniquacQ": "3.639",
    "ApiSrkS2": "0.000704",
    "ChaoSeaderAcentricFactor": "0.255237",
    "ChaoSeaderSolubilityParameter": "14730",
    "ChaoSeaderLiquidVolume": "0.126739",
    "UnifacVLE": {
        "group": "1"
    },
    "UnifacLLE": {
        "group": "1"
    },
    "Asog": {
        "group": "1"
    },
    "GCmethod": {
        "group": "1"
    },
    "Umr": {
        "group": "1"
    },
    "ModifiedUnifac": {
        "group": "1"
    },
    "CAS": "674-76-0",
    "Smiles": "C/C=C/C(C)C"
}