{
    "LibraryIndex": "30",
    "CompoundID": "4-methylheptane",
    "StructureFormula": "CH3(CH2)2CH(CH3)(CH2)2CH3",
    "Family": "2",
    "CriticalTemperature": "561.7",
    "CriticalPressure": "2540000",
    "CriticalVolume": "0.476",
    "CriticalCompressibility": "0.259",
    "NormalBoilingPointTemperature": "390.86",
    "NormalMeltingPointTemperature": "152.19",
    "TriplePointTemperature": "152.2",
    "TriplePointPressure": "0.0000457034",
    "MolecularWeight": "114.2285",
    "LiquidVolumeAtNormalBoilingPoint": "0.16306",
    "AcentricityFactor": "0.371",
    "RadiusOfGyration": "4.52E-10",
    "SolubilityParameter": "15140",
    "DipoleMoment": "0",
    "VanDerWaalsVolume": "0.0887",
    "VanDerWaalsArea": "1.233E+09",
    "HeatOfFormation": "-2.1196E+08",
    "GibbsEnergyOfFormation": "1.571E+07",
    "AbsEntropy": "457390",
    "HeatOfFusionAtMeltingPoint": "1.08E+07",
    "MatthiasCopemanC1": "1.0902",
    "HeatOfCombustion": "-5.07282E+09",
    "SolidDensity": {
        "eqno": "2",
        "A": "8.8808",
        "B": "-0.0059952",
        "C": "0",
        "D": "0",
        "E": "0",
        "Tmin": "60.88",
        "Tmax": "152.2"
    },
    "LiquidDensity": {
        "eqno": "105",
        "A": "0.41247",
        "B": "0.23007",
        "C": "561.76",
        "D": "0.23229",
        "Tmin": "152.15",
        "Tmax": "561.75"
    },
    "VaporPressure": {
        "eqno": "101",
        "A": "97.33843",
        "B": "-7742.706",
        "C": "-11.25952",
        "D": "7.843366E-06",
        "E": "2",
        "Tmin": "152.2",
        "Tmax": "561.74"
    },
    "HeatOfVaporization": {
        "eqno": "106",
        "A": "6.797167E+07",
        "B": "1.151616",
        "C": "-0.835173",
        "D": "-0.171743",
        "E": "0.314726",
        "Tmin": "152.2",
        "Tmax": "540.15"
    },
    "SolidHeatCapacityCp": {
        "eqno": "1",
        "A": "223200",
        "Tmin": "0",
        "Tmax": "561.7"
    },
    "LiquidHeatCapacityCp": {
        "eqno": "16",
        "A": "123600",
        "B": "-18.717",
        "C": "11.067",
        "D": "0.0020327",
        "E": "0.0000016218",
        "Tmin": "152",
        "Tmax": "530"
    },
    "IdealGasHeatCapacityCp": {
        "eqno": "16",
        "A": "100250",
        "B": "-569.74",
        "C": "13.266",
        "D": "0.000060406",
        "E": "-2.5661E-08",
        "Tmin": "150",
        "Tmax": "1500"
    },
    "SecondVirialCoefficient": {
        "eqno": "104",
        "A": "0.26872",
        "B": "-336.78",
        "C": "-55.297",
        "D": "-13650",
        "E": "26132",
        "Tmin": "280.85",
        "Tmax": "1792.87"
    },
    "LiquidViscosity": {
        "eqno": "101",
        "A": "-11.11",
        "B": "1066.3",
        "C": "-0.039384",
        "D": "1.7455E-07",
        "E": "2",
        "Tmin": "152.2",
        "Tmax": "390.86"
    },
    "VaporViscosity": {
        "eqno": "102",
        "A": "0.0000043616",
        "B": "0.27023",
        "C": "695.06",
        "D": "-2959.1",
        "Tmin": "152.2",
        "Tmax": "1000"
    },
    "LiquidThermalConductivity": {
        "eqno": "16",
        "A": "-0.096483",
        "B": "12.321",
        "C": "-1.3603",
        "D": "-0.00031289",
        "E": "-0.0000012186",
        "Tmin": "152.15",
        "Tmax": "503.15"
    },
    "VaporThermalConductivity": {
        "eqno": "102",
        "A": "0.000040274",
        "B": "1.1204",
        "C": "-164.18",
        "D": "166050",
        "Tmin": "152.2",
        "Tmax": "1000"
    },
    "SurfaceTension": {
        "eqno": "16",
        "A": "-0.015124",
        "B": "11.813",
        "C": "-2.8959",
        "D": "-0.000703",
        "E": "-0.0000030068",
        "Tmin": "152.2",
        "Tmax": "540.15"
    },
    "RPPHeatCapacityCp": {
        "eqno": "100",
        "A": "18142",
        "B": "522.38",
        "C": "0.36742",
        "D": "-0.00083319",
        "E": "3.6234E-07",
        "Tmin": "200",
        "Tmax": "1000"
    },
    "AntoineVaporPressure": {
        "eqno": "10",
        "A": "20.935",
        "B": "3153.8",
        "C": "-55.685",
        "Tmin": "341.5",
        "Tmax": "503.15"
    },
    "LiquidViscosityRPS": {
        "eqno": "12",
        "A": "-2.4371",
        "B": "-0.017141",
        "Tmin": "152.2",
        "Tmax": "390.86"
    },
    "COSTALDVolume": "0.486849",
    "DiameterLJ": "7.370341E-10",
    "EnergyLJ": "283.3328",
    "RacketParameter": "0.259",
    "FullerVolume": "168.78",
    "MatthiasCopemanC2": "-0.46166",
    "Parachor": "0.0611736",
    "SpecificGravity": "0.710283",
    "Charge": "0",
    "CostaldAcentricFactor": "0.371",
    "WilsonVolume": "0.16306",
    "UniquacR": "5.8478",
    "UniquacQ": "4.932",
    "ApiSrkS2": "-0.00287",
    "MatthiasCopemanC3": "0.95432",
    "ChaoSeaderAcentricFactor": "0.371",
    "ChaoSeaderSolubilityParameter": "15140",
    "ChaoSeaderLiquidVolume": "0.16306",
    "UnifacVLE": {
        "group": "1"
    },
    "UnifacLLE": {
        "group": "1"
    },
    "Asog": {
        "group": "1"
    },
    "GCmethod": {
        "group": "1"
    },
    "Umr": {
        "group": "1"
    },
    "ModifiedUnifac": {
        "group": "1"
    },
    "CAS": "589-53-7",
    "Smiles": "CCCC(C)CCC"
}