{
    "LibraryIndex": "227",
    "CompoundID": "4-methyl-cis-2-pentene",
    "StructureFormula": "CH3CHCHCH(CH3)2",
    "Family": "11",
    "CriticalTemperature": "499",
    "CriticalPressure": "3220000",
    "CriticalVolume": "0.346",
    "CriticalCompressibility": "0.269",
    "NormalBoilingPointTemperature": "329.53",
    "NormalMeltingPointTemperature": "138.72",
    "TriplePointTemperature": "138.3",
    "TriplePointPressure": "0.00215772",
    "MolecularWeight": "84.15948",
    "LiquidVolumeAtNormalBoilingPoint": "0.126648",
    "AcentricityFactor": "0.244178",
    "RadiusOfGyration": "3.621E-10",
    "SolubilityParameter": "14610",
    "DipoleMoment": "7.18E-31",
    "VanDerWaalsVolume": "0.06473",
    "VanDerWaalsArea": "9.09E+08",
    "HeatOfFormation": "-5.03335E+07",
    "GibbsEnergyOfFormation": "7.69856E+07",
    "AbsEntropy": "373338",
    "HeatOfFusionAtMeltingPoint": "7363840",
    "HeatOfCombustion": "-3.72502E+09",
    "SolidDensity": {
        "eqno": "2",
        "A": "12.041",
        "B": "-0.0096786",
        "C": "0",
        "D": "0",
        "E": "0",
        "Tmin": "55.32",
        "Tmax": "138.3"
    },
    "LiquidDensity": {
        "eqno": "105",
        "A": "0.77793",
        "B": "0.27017",
        "C": "499",
        "D": "0.2861",
        "Tmin": "138.3",
        "Tmax": "480.02"
    },
    "VaporPressure": {
        "eqno": "101",
        "A": "83.573",
        "B": "-5993.9",
        "C": "-9.4501",
        "D": "0.0000085686",
        "E": "2",
        "Tmin": "138.3",
        "Tmax": "499"
    },
    "HeatOfVaporization": {
        "eqno": "106",
        "A": "5.4227E+07",
        "B": "1.5628",
        "C": "-2.6171",
        "D": "2.4298",
        "E": "-0.92758",
        "Tmin": "138.3",
        "Tmax": "480.02"
    },
    "SolidHeatCapacityCp": {
        "eqno": "1",
        "A": "156060",
        "Tmin": "0",
        "Tmax": "499"
    },
    "LiquidHeatCapacityCp": {
        "eqno": "16",
        "A": "-59803",
        "B": "-16.203",
        "C": "11.773",
        "D": "0.0034333",
        "E": "-0.0000037581",
        "Tmin": "138.3",
        "Tmax": "329.53"
    },
    "IdealGasHeatCapacityCp": {
        "eqno": "16",
        "A": "101130",
        "B": "-861.95",
        "C": "13.463",
        "D": "-0.00060529",
        "E": "2.0212E-07",
        "Tmin": "200",
        "Tmax": "1500"
    },
    "SecondVirialCoefficient": {
        "eqno": "104",
        "A": "0.19352",
        "B": "-193.4",
        "C": "-26.471",
        "D": "-1593.9",
        "E": "1901.2",
        "Tmin": "249.5",
        "Tmax": "2000"
    },
    "LiquidViscosity": {
        "eqno": "101",
        "A": "-11.752",
        "B": "820.42",
        "C": "0.14056",
        "D": "-7.3435E-07",
        "E": "2",
        "Tmin": "138.3",
        "Tmax": "405"
    },
    "VaporViscosity": {
        "eqno": "102",
        "A": "6.3021E-07",
        "B": "0.52941",
        "C": "268.94",
        "D": "16.597",
        "Tmin": "329.53",
        "Tmax": "1000"
    },
    "LiquidThermalConductivity": {
        "eqno": "16",
        "A": "-0.050868",
        "B": "4.0553",
        "C": "-1.554",
        "D": "-0.00045968",
        "E": "-0.000001981",
        "Tmin": "138.3",
        "Tmax": "329.53"
    },
    "VaporThermalConductivity": {
        "eqno": "102",
        "A": "0.000052516",
        "B": "1.0978",
        "C": "-60.883",
        "D": "128130",
        "Tmin": "138.3",
        "Tmax": "1000"
    },
    "SurfaceTension": {
        "eqno": "16",
        "A": "-0.011598",
        "B": "20.102",
        "C": "-3.0908",
        "D": "-0.00038666",
        "E": "-0.0000050432",
        "Tmin": "138.3",
        "Tmax": "480.02"
    },
    "RPPHeatCapacityCp": {
        "eqno": "4",
        "A": "16890",
        "B": "454.86",
        "C": "-0.20446",
        "D": "0.000032855",
        "Tmin": "200",
        "Tmax": "1500"
    },
    "AntoineVaporPressure": {
        "eqno": "10",
        "A": "20.651",
        "B": "2585.2",
        "C": "-46.215",
        "Tmin": "299.87",
        "Tmax": "442.05"
    },
    "LiquidViscosityRPS": {
        "eqno": "12",
        "A": "-3.4146",
        "B": "-0.016461",
        "Tmin": "138.3",
        "Tmax": "329.53"
    },
    "COSTALDVolume": "0.347048",
    "DiameterLJ": "6.33239E-10",
    "EnergyLJ": "288.4841",
    "RacketParameter": "0.269",
    "FullerVolume": "123.12",
    "Parachor": "0.0450895",
    "SpecificGravity": "0.674097",
    "Charge": "0",
    "CostaldAcentricFactor": "0.244178",
    "WilsonVolume": "0.126648",
    "UniquacR": "4.2669",
    "UniquacQ": "3.639",
    "ApiSrkS2": "0.001675",
    "ChaoSeaderAcentricFactor": "0.244178",
    "ChaoSeaderSolubilityParameter": "14610",
    "ChaoSeaderLiquidVolume": "0.126648",
    "UnifacVLE": {
        "group": "1"
    },
    "UnifacLLE": {
        "group": "1"
    },
    "Asog": {
        "group": "1"
    },
    "GCmethod": {
        "group": "1"
    },
    "Umr": {
        "group": "1"
    },
    "ModifiedUnifac": {
        "group": "1"
    },
    "CAS": "691-38-3",
    "Smiles": "C/C=C\\C(C)C"
}