{
    "LibraryIndex": "93",
    "CompoundID": "4-methyloctane",
    "StructureFormula": "CH3(CH2)2CHCH3(CH2)3CH3",
    "Family": "2",
    "CriticalTemperature": "587.65",
    "CriticalPressure": "2340000",
    "CriticalVolume": "0.523",
    "CriticalCompressibility": "0.25",
    "NormalBoilingPointTemperature": "415.59",
    "NormalMeltingPointTemperature": "159.95",
    "TriplePointTemperature": "159.95",
    "TriplePointPressure": "0.0000317697",
    "MolecularWeight": "128.2551",
    "LiquidVolumeAtNormalBoilingPoint": "0.179037",
    "AcentricityFactor": "0.412925",
    "RadiusOfGyration": "4.772E-10",
    "SolubilityParameter": "15300",
    "DipoleMoment": "0",
    "VanDerWaalsVolume": "0.09894",
    "VanDerWaalsArea": "1.368E+09",
    "HeatOfFormation": "-2.336E+08",
    "GibbsEnergyOfFormation": "2.17E+07",
    "AbsEntropy": "501660",
    "HeatOfFusionAtMeltingPoint": "1.6E+07",
    "HeatOfCombustion": "-5.68166E+09",
    "SolidDensity": {
        "eqno": "2",
        "A": "8.0556",
        "B": "-0.0055544",
        "C": "0",
        "D": "0",
        "E": "0",
        "Tmin": "63.98",
        "Tmax": "159.95"
    },
    "LiquidDensity": {
        "eqno": "105",
        "A": "0.51336",
        "B": "0.26824",
        "C": "587.65",
        "D": "0.29075",
        "Tmin": "159.95",
        "Tmax": "587.65"
    },
    "VaporPressure": {
        "eqno": "101",
        "A": "168.4912",
        "B": "-11138.63",
        "C": "-22.13486",
        "D": "0.0000188399",
        "E": "2",
        "Tmin": "159.95",
        "Tmax": "587.65"
    },
    "HeatOfVaporization": {
        "eqno": "106",
        "A": "6.2916E+07",
        "B": "0.7446",
        "C": "-0.80882",
        "D": "0.80228",
        "E": "-0.33895",
        "Tmin": "159.95",
        "Tmax": "587.65"
    },
    "SolidHeatCapacityCp": {
        "eqno": "1",
        "A": "249210",
        "Tmin": "0",
        "Tmax": "587.65"
    },
    "LiquidHeatCapacityCp": {
        "eqno": "16",
        "A": "71582",
        "B": "100.57",
        "C": "10.612",
        "D": "0.0050783",
        "E": "-0.0000024905",
        "Tmin": "159.95",
        "Tmax": "500"
    },
    "IdealGasHeatCapacityCp": {
        "eqno": "16",
        "A": "116790",
        "B": "-588.34",
        "C": "13.412",
        "D": "0.000015201",
        "E": "-1.4561E-08",
        "Tmin": "150",
        "Tmax": "1500"
    },
    "SecondVirialCoefficient": {
        "eqno": "104",
        "A": "0.30648",
        "B": "-389",
        "C": "-74.826",
        "D": "-18071",
        "E": "28356",
        "Tmin": "293.82",
        "Tmax": "1877.83"
    },
    "LiquidViscosity": {
        "eqno": "101",
        "A": "-11.837",
        "B": "1162",
        "C": "0.077237",
        "D": "-2.6336E-07",
        "E": "2",
        "Tmin": "159.95",
        "Tmax": "470.12"
    },
    "VaporViscosity": {
        "eqno": "102",
        "A": "3.2706E-07",
        "B": "0.5848",
        "C": "183.92",
        "D": "0.068678",
        "Tmin": "159.95",
        "Tmax": "1000"
    },
    "LiquidThermalConductivity": {
        "eqno": "16",
        "A": "-0.1663",
        "B": "9.2848",
        "C": "-1.1068",
        "D": "-0.00028405",
        "E": "-0.0000007408",
        "Tmin": "159.95",
        "Tmax": "470"
    },
    "VaporThermalConductivity": {
        "eqno": "102",
        "A": "0.000038784",
        "B": "1.117",
        "C": "-185.06",
        "D": "177130",
        "Tmin": "159.95",
        "Tmax": "1000"
    },
    "SurfaceTension": {
        "eqno": "16",
        "A": "-0.0090133",
        "B": "27.989",
        "C": "-3.1772",
        "D": "0.00013817",
        "E": "-0.0000048752",
        "Tmin": "159.95",
        "Tmax": "587.65"
    },
    "RPPHeatCapacityCp": {
        "eqno": "4",
        "A": "1160.7",
        "B": "826.4",
        "C": "-0.41015",
        "D": "0.000072067",
        "Tmin": "150",
        "Tmax": "1500"
    },
    "AntoineVaporPressure": {
        "eqno": "10",
        "A": "20.596",
        "B": "3082.6",
        "C": "-75.645",
        "Tmin": "353.15",
        "Tmax": "520.12"
    },
    "LiquidViscosityRPS": {
        "eqno": "12",
        "A": "-2.3456",
        "B": "-0.016308",
        "Tmin": "159.95",
        "Tmax": "415.59"
    },
    "COSTALDVolume": "0.550226",
    "DiameterLJ": "7.935072E-10",
    "EnergyLJ": "260.9853",
    "RacketParameter": "0.25",
    "FullerVolume": "189.3",
    "Parachor": "0.0683237",
    "SpecificGravity": "0.724328",
    "Charge": "0",
    "CostaldAcentricFactor": "0.412925",
    "WilsonVolume": "0.179037",
    "UniquacR": "6.5222",
    "UniquacQ": "5.472",
    "ChaoSeaderAcentricFactor": "0.412925",
    "ChaoSeaderSolubilityParameter": "15300",
    "ChaoSeaderLiquidVolume": "0.179037",
    "UnifacVLE": {
        "group": "1"
    },
    "UnifacLLE": {
        "group": "1"
    },
    "Asog": {
        "group": "1"
    },
    "GCmethod": {
        "group": "1"
    },
    "Umr": {
        "group": "1"
    },
    "ModifiedUnifac": {
        "group": "1"
    },
    "CAS": "2216-34-4",
    "Smiles": "CCCC(C)CCCC"
}