{
    "LibraryIndex": "87",
    "CompoundID": "4-methylnonane",
    "StructureFormula": "CH3(CH2)2CH(CH3)(CH2)4CH3",
    "Family": "2",
    "CriticalTemperature": "613.7",
    "CriticalPressure": "2140000",
    "CriticalVolume": "0.5904",
    "CriticalCompressibility": "0.248",
    "NormalBoilingPointTemperature": "438.85",
    "NormalMeltingPointTemperature": "174.45",
    "TriplePointTemperature": "174.45",
    "TriplePointPressure": "0.000108068",
    "MolecularWeight": "142.2817",
    "LiquidVolumeAtNormalBoilingPoint": "0.195426",
    "AcentricityFactor": "0.465073",
    "RadiusOfGyration": "5.265E-10",
    "SolubilityParameter": "15500",
    "DipoleMoment": "0",
    "VanDerWaalsVolume": "0.10917",
    "VanDerWaalsArea": "1.503E+09",
    "HeatOfFormation": "-2.547E+08",
    "GibbsEnergyOfFormation": "2.89E+07",
    "AbsEntropy": "541900",
    "HeatOfFusionAtMeltingPoint": "1.52E+07",
    "HeatOfCombustion": "-6.291E+09",
    "SolidDensity": {
        "eqno": "2",
        "A": "7.2988",
        "B": "-0.0046485",
        "C": "0",
        "D": "0",
        "E": "0",
        "Tmin": "69.78",
        "Tmax": "174.45"
    },
    "LiquidDensity": {
        "eqno": "105",
        "A": "0.046753",
        "B": "0.085687",
        "C": "613.7",
        "D": "0.13909",
        "Tmin": "174.45",
        "Tmax": "610"
    },
    "VaporPressure": {
        "eqno": "101",
        "A": "143.6866",
        "B": "-10632.15",
        "C": "-18.17547",
        "D": "0.0000137486",
        "E": "2",
        "Tmin": "174.45",
        "Tmax": "610"
    },
    "HeatOfVaporization": {
        "eqno": "106",
        "A": "6.2873E+07",
        "B": "0.39496",
        "C": "-0.054115",
        "D": "0.081779",
        "E": "-0.040701",
        "Tmin": "174.45",
        "Tmax": "610"
    },
    "SolidHeatCapacityCp": {
        "eqno": "100",
        "A": "1327700",
        "B": "-47867",
        "C": "675.59",
        "D": "-4.0824",
        "E": "0.0090781",
        "Tmin": "80",
        "Tmax": "160"
    },
    "LiquidHeatCapacityCp": {
        "eqno": "16",
        "A": "41953",
        "B": "56.5",
        "C": "11.484",
        "D": "0.0029861",
        "E": "-0.0000006055",
        "Tmin": "120",
        "Tmax": "580"
    },
    "IdealGasHeatCapacityCp": {
        "eqno": "16",
        "A": "130820",
        "B": "-589.61",
        "C": "13.519",
        "D": "-0.0000013811",
        "E": "-1.0182E-08",
        "Tmin": "150",
        "Tmax": "1500"
    },
    "SecondVirialCoefficient": {
        "eqno": "104",
        "A": "0.34066",
        "B": "-433.78",
        "C": "-97.746",
        "D": "-34416",
        "E": "59442",
        "Tmin": "305",
        "Tmax": "1500"
    },
    "LiquidViscosity": {
        "eqno": "101",
        "A": "-8.7174",
        "B": "1148.5",
        "C": "-0.42278",
        "D": "0.000000818",
        "E": "2",
        "Tmin": "174.45",
        "Tmax": "491"
    },
    "VaporViscosity": {
        "eqno": "102",
        "A": "5.0899E-07",
        "B": "0.5228",
        "C": "260.59",
        "D": "-971.93",
        "Tmin": "174.45",
        "Tmax": "1000"
    },
    "LiquidThermalConductivity": {
        "eqno": "16",
        "A": "-0.16198",
        "B": "12.531",
        "C": "-1.1439",
        "D": "-0.00019006",
        "E": "-7.9079E-07",
        "Tmin": "174.45",
        "Tmax": "488"
    },
    "VaporThermalConductivity": {
        "eqno": "102",
        "A": "0.000039332",
        "B": "1.1131",
        "C": "-152.11",
        "D": "174490",
        "Tmin": "174.45",
        "Tmax": "1000"
    },
    "SurfaceTension": {
        "eqno": "16",
        "A": "-0.0091915",
        "B": "41.648",
        "C": "-3.2196",
        "D": "0.0001215",
        "E": "-0.0000043751",
        "Tmin": "174.45",
        "Tmax": "610"
    },
    "RPPHeatCapacityCp": {
        "eqno": "4",
        "A": "3419.1",
        "B": "914.32",
        "C": "-0.46014",
        "D": "0.000082394",
        "Tmin": "150",
        "Tmax": "1500"
    },
    "AntoineVaporPressure": {
        "eqno": "10",
        "A": "20.928",
        "B": "3434.7",
        "C": "-73.509",
        "Tmin": "374.15",
        "Tmax": "541.23"
    },
    "LiquidViscosityRPS": {
        "eqno": "12",
        "A": "-2.4192",
        "B": "-0.015045",
        "Tmin": "174.45",
        "Tmax": "438.85"
    },
    "COSTALDVolume": "0.616046",
    "DiameterLJ": "8.342286E-10",
    "EnergyLJ": "264.7862",
    "RacketParameter": "0.248",
    "FullerVolume": "209.82",
    "Parachor": "0.0754875",
    "SpecificGravity": "0.736664",
    "Charge": "0",
    "CostaldAcentricFactor": "0.465073",
    "WilsonVolume": "0.195426",
    "UniquacR": "7.196599",
    "UniquacQ": "6.012",
    "ChaoSeaderAcentricFactor": "0.465073",
    "ChaoSeaderSolubilityParameter": "15500",
    "ChaoSeaderLiquidVolume": "0.195426",
    "UnifacVLE": {
        "group": "1"
    },
    "UnifacLLE": {
        "group": "1"
    },
    "Asog": {
        "group": "1"
    },
    "GCmethod": {
        "group": "1"
    },
    "Umr": {
        "group": "1"
    },
    "ModifiedUnifac": {
        "group": "1"
    },
    "CAS": "17301-94-9",
    "Smiles": "CCCC(C)CCCCC"
}