{
    "LibraryIndex": "88",
    "CompoundID": "5-methylnonane",
    "StructureFormula": "CH3(CH2)3CH(CH3)(CH2)3CH3",
    "Family": "2",
    "CriticalTemperature": "609.6",
    "CriticalPressure": "2140000",
    "CriticalVolume": "0.5904",
    "CriticalCompressibility": "0.248",
    "NormalBoilingPointTemperature": "438.25",
    "NormalMeltingPointTemperature": "186",
    "TriplePointTemperature": "185.45",
    "TriplePointPressure": "0.000438465",
    "MolecularWeight": "142.2817",
    "LiquidVolumeAtNormalBoilingPoint": "0.195298",
    "AcentricityFactor": "0.456177",
    "RadiusOfGyration": "5.318E-10",
    "SolubilityParameter": "15440",
    "DipoleMoment": "0",
    "VanDerWaalsVolume": "0.10917",
    "VanDerWaalsArea": "1.503E+09",
    "HeatOfFormation": "-2.5472E+08",
    "GibbsEnergyOfFormation": "3.06E+07",
    "AbsEntropy": "536500",
    "HeatOfFusionAtMeltingPoint": "1.66E+07",
    "HeatOfCombustion": "-6.291E+09",
    "SolidDensity": {
        "eqno": "2",
        "A": "7.2082",
        "B": "-0.0043126",
        "C": "0",
        "D": "0",
        "E": "0",
        "Tmin": "74.18",
        "Tmax": "185.45"
    },
    "LiquidDensity": {
        "eqno": "105",
        "A": "0.41463",
        "B": "0.2529",
        "C": "610.01",
        "D": "0.28051",
        "Tmin": "185.45",
        "Tmax": "610"
    },
    "VaporPressure": {
        "eqno": "101",
        "A": "215.6392",
        "B": "-13712.31",
        "C": "-29.15861",
        "D": "0.0000236309",
        "E": "2",
        "Tmin": "185.45",
        "Tmax": "610"
    },
    "HeatOfVaporization": {
        "eqno": "106",
        "A": "6.5588E+07",
        "B": "0.029762",
        "C": "1.6061",
        "D": "-2.0417",
        "E": "0.80324",
        "Tmin": "185.45",
        "Tmax": "587.66"
    },
    "SolidHeatCapacityCp": {
        "eqno": "100",
        "A": "759980",
        "B": "-25254",
        "C": "344.7",
        "D": "-1.9725",
        "E": "0.0041285",
        "Tmin": "80",
        "Tmax": "180"
    },
    "LiquidHeatCapacityCp": {
        "eqno": "16",
        "A": "230160",
        "B": "-61.977",
        "C": "9.1603",
        "D": "0.0096645",
        "E": "-0.0000061376",
        "Tmin": "185.45",
        "Tmax": "550"
    },
    "IdealGasHeatCapacityCp": {
        "eqno": "16",
        "A": "131700",
        "B": "-594.98",
        "C": "13.529",
        "D": "-0.000014234",
        "E": "-5.0987E-09",
        "Tmin": "150",
        "Tmax": "1500"
    },
    "SecondVirialCoefficient": {
        "eqno": "104",
        "A": "0.34066",
        "B": "-433.78",
        "C": "-97.746",
        "D": "-34416",
        "E": "59442",
        "Tmin": "305",
        "Tmax": "1500"
    },
    "LiquidViscosity": {
        "eqno": "101",
        "A": "-13.838",
        "B": "1303.8",
        "C": "0.41828",
        "D": "-8.7942E-07",
        "E": "2",
        "Tmin": "185.45",
        "Tmax": "491"
    },
    "VaporViscosity": {
        "eqno": "102",
        "A": "5.7631E-07",
        "B": "0.50736",
        "C": "283.05",
        "D": "-1279.5",
        "Tmin": "185.45",
        "Tmax": "1000"
    },
    "LiquidThermalConductivity": {
        "eqno": "16",
        "A": "-0.183",
        "B": "10.49",
        "C": "-1.0698",
        "D": "-0.00021616",
        "E": "-6.8913E-07",
        "Tmin": "185.45",
        "Tmax": "488"
    },
    "VaporThermalConductivity": {
        "eqno": "102",
        "A": "0.00003614",
        "B": "1.1239",
        "C": "-159.13",
        "D": "172680",
        "Tmin": "185.45",
        "Tmax": "1000"
    },
    "SurfaceTension": {
        "eqno": "16",
        "A": "-0.015552",
        "B": "22.28",
        "C": "-2.8961",
        "D": "-0.00075059",
        "E": "-0.0000023626",
        "Tmin": "185.45",
        "Tmax": "587.66"
    },
    "RPPHeatCapacityCp": {
        "eqno": "4",
        "A": "4321",
        "B": "909.02",
        "C": "-0.45451",
        "D": "0.000080712",
        "Tmin": "150",
        "Tmax": "1500"
    },
    "AntoineVaporPressure": {
        "eqno": "10",
        "A": "20.621",
        "B": "3256.6",
        "C": "-80.185",
        "Tmin": "367.15",
        "Tmax": "542.97"
    },
    "LiquidViscosityRPS": {
        "eqno": "12",
        "A": "-2.6594",
        "B": "-0.014236",
        "Tmin": "185.45",
        "Tmax": "438.3"
    },
    "COSTALDVolume": "0.616046",
    "DiameterLJ": "8.342286E-10",
    "EnergyLJ": "263.0172",
    "RacketParameter": "0.248",
    "FullerVolume": "209.82",
    "Parachor": "0.0758946",
    "SpecificGravity": "0.736351",
    "Charge": "0",
    "CostaldAcentricFactor": "0.456177",
    "WilsonVolume": "0.195298",
    "UniquacR": "7.196599",
    "UniquacQ": "6.012",
    "ChaoSeaderAcentricFactor": "0.456177",
    "ChaoSeaderSolubilityParameter": "15440",
    "ChaoSeaderLiquidVolume": "0.195298",
    "UnifacVLE": {
        "group": "1"
    },
    "UnifacLLE": {
        "group": "1"
    },
    "Asog": {
        "group": "1"
    },
    "GCmethod": {
        "group": "1"
    },
    "Umr": {
        "group": "1"
    },
    "ModifiedUnifac": {
        "group": "1"
    },
    "CAS": "15869-85-9",
    "Smiles": "CCCCC(C)CCCC"
}