{
    "LibraryIndex": "1851",
    "CompoundID": "Acetyl chloride",
    "StructureFormula": "CH3COCl",
    "Family": "71",
    "CriticalTemperature": "508",
    "CriticalPressure": "5740000",
    "CriticalVolume": "0.196",
    "CriticalCompressibility": "0.266",
    "NormalBoilingPointTemperature": "323.9",
    "NormalMeltingPointTemperature": "160.3",
    "TriplePointTemperature": "160.3",
    "TriplePointPressure": "0.0945737",
    "MolecularWeight": "78.49762",
    "LiquidVolumeAtNormalBoilingPoint": "0.0713449",
    "AcentricityFactor": "0.334018",
    "RadiusOfGyration": "2.712E-10",
    "SolubilityParameter": "19730",
    "DipoleMoment": "9.07E-30",
    "VanDerWaalsVolume": "0.03699",
    "VanDerWaalsArea": "5.52E+08",
    "HeatOfFormation": "-2.4351E+08",
    "GibbsEnergyOfFormation": "-2.058E+08",
    "AbsEntropy": "295000",
    "HeatOfFusionAtMeltingPoint": "2.75307E+08",
    "HeatOfCombustion": "-8.7599E+08",
    "SolidDensity": {
        "eqno": "2",
        "A": "20.469",
        "B": "-0.013585",
        "Tmin": "64.12",
        "Tmax": "160.3"
    },
    "LiquidDensity": {
        "eqno": "105",
        "A": "1.4254",
        "B": "0.27938",
        "C": "508",
        "D": "0.26304",
        "Tmin": "160.3",
        "Tmax": "508"
    },
    "VaporPressure": {
        "eqno": "101",
        "A": "99.17638",
        "B": "-7177.914",
        "C": "-11.22425",
        "D": "-0.0000057394",
        "E": "2",
        "Tmin": "160.3",
        "Tmax": "508"
    },
    "HeatOfVaporization": {
        "eqno": "106",
        "A": "4.0E+07",
        "B": "0.3",
        "C": "0",
        "D": "0",
        "E": "0",
        "Tmin": "160.3",
        "Tmax": "519.35"
    },
    "LiquidHeatCapacityCp": {
        "eqno": "16",
        "A": "42690",
        "B": "1356.4",
        "C": "-2.0032",
        "D": "0.038796",
        "E": "-0.000032805",
        "Tmin": "227.44",
        "Tmax": "381"
    },
    "IdealGasHeatCapacityCp": {
        "eqno": "16",
        "A": "55490",
        "B": "-733.46",
        "C": "11.97",
        "D": "-0.00022853",
        "E": "6.1958E-08",
        "Tmin": "200",
        "Tmax": "1500"
    },
    "SecondVirialCoefficient": {
        "eqno": "104",
        "A": "0.12026",
        "B": "-122.6",
        "C": "-19.118",
        "D": "-10341",
        "E": "16844",
        "Tmin": "254",
        "Tmax": "1850"
    },
    "LiquidViscosity": {
        "eqno": "101",
        "A": "4.4371",
        "B": "130.26",
        "C": "-2.2299",
        "D": "-8.5166E-07",
        "E": "2",
        "Tmin": "250",
        "Tmax": "373"
    },
    "VaporViscosity": {
        "eqno": "102",
        "A": "5.0377E-08",
        "B": "0.94052",
        "C": "79.768",
        "D": "-9041.6",
        "Tmin": "160.3",
        "Tmax": "1000"
    },
    "LiquidThermalConductivity": {
        "eqno": "16",
        "A": "0.11965",
        "B": "1957.5",
        "C": "-32.911",
        "D": "0.1548",
        "E": "-0.00027429",
        "Tmin": "160.3",
        "Tmax": "323.9"
    },
    "VaporThermalConductivity": {
        "eqno": "102",
        "A": "-27944",
        "B": "0.34599",
        "C": "-4.878E+09",
        "D": "-7.8546E+10",
        "Tmin": "160.3",
        "Tmax": "1000"
    },
    "SurfaceTension": {
        "eqno": "16",
        "A": "-0.028314",
        "B": "13.997",
        "C": "-2.5681",
        "D": "-0.00040564",
        "E": "-0.0000031823",
        "Tmin": "160.3",
        "Tmax": "508"
    },
    "RPPHeatCapacityCp": {
        "eqno": "4",
        "A": "24995.64",
        "B": "170.9624",
        "C": "-0.0985039",
        "D": "0.0000221861",
        "Tmin": "200",
        "Tmax": "1200"
    },
    "RelativeStaticPermittivity": {
        "eqno": "120",
        "A": "-16.34649",
        "B": "-7900",
        "C": "-47.4",
        "Tmin": "274.15",
        "Tmax": "444.15"
    },
    "AntoineVaporPressure": {
        "eqno": "10",
        "A": "22.285",
        "B": "3449.5",
        "C": "-3.3316",
        "Tmin": "306.28",
        "Tmax": "453.1"
    },
    "LiquidViscosityRPS": {
        "eqno": "13",
        "A": "-3.4531",
        "B": "-0.020401",
        "C": "0.000018319",
        "Tmin": "250",
        "Tmax": "323.9"
    },
    "COSTALDVolume": "0.196053",
    "DiameterLJ": "5.310544E-10",
    "EnergyLJ": "282.066",
    "RacketParameter": "0.26125",
    "FullerVolume": "65.84",
    "Parachor": "0.0285",
    "SpecificGravity": "1.104",
    "Charge": "0",
    "CostaldAcentricFactor": "0.334018",
    "WilsonVolume": "0.0712327",
    "UniquacR": "2.438365",
    "UniquacQ": "2.208",
    "ChaoSeaderAcentricFactor": "0.334018",
    "ChaoSeaderSolubilityParameter": "20189.2",
    "ChaoSeaderLiquidVolume": "0.0712327",
    "CAS": "75-36-5",
    "Smiles": "CC(=O)Cl"
}