{
    "LibraryIndex": "1002",
    "CompoundID": "Acetaldehyde",
    "StructureFormula": "CH3CHO",
    "Family": "25",
    "CriticalTemperature": "466",
    "CriticalPressure": "5550000",
    "CriticalVolume": "0.154",
    "CriticalCompressibility": "0.221",
    "NormalBoilingPointTemperature": "294",
    "NormalMeltingPointTemperature": "150.15",
    "TriplePointTemperature": "150.15",
    "TriplePointPressure": "0.323203",
    "MolecularWeight": "44.05256",
    "LiquidVolumeAtNormalBoilingPoint": "0.0568878",
    "AcentricityFactor": "0.290734",
    "RadiusOfGyration": "2.083E-10",
    "SolubilityParameter": "20110",
    "DipoleMoment": "8.97E-30",
    "VanDerWaalsVolume": "0.02881",
    "VanDerWaalsArea": "4.49E+08",
    "HeatOfFormation": "-1.664E+08",
    "GibbsEnergyOfFormation": "-1.333E+08",
    "AbsEntropy": "264200",
    "HeatOfFusionAtMeltingPoint": "3220000",
    "MatthiasCopemanC1": "1.19343",
    "HeatOfCombustion": "-1.1045E+09",
    "SolidDensity": {
        "eqno": "2",
        "A": "27.289",
        "B": "-0.020316",
        "Tmin": "60.06",
        "Tmax": "150.15"
    },
    "LiquidDensity": {
        "eqno": "105",
        "A": "1.2346",
        "B": "0.22392",
        "C": "466",
        "D": "0.25025",
        "Tmin": "150.15",
        "Tmax": "455.37"
    },
    "VaporPressure": {
        "eqno": "101",
        "A": "132.6058",
        "B": "-7086.883",
        "C": "-17.42481",
        "D": "0.0000237457",
        "E": "2",
        "Tmin": "150.15",
        "Tmax": "466"
    },
    "HeatOfVaporization": {
        "eqno": "106",
        "A": "1.4565E+07",
        "B": "-6.1925",
        "C": "18.559",
        "D": "-20.707",
        "E": "8.5605",
        "Tmin": "150.15",
        "Tmax": "449.38"
    },
    "SolidHeatCapacityCp": {
        "eqno": "1",
        "A": "65440",
        "Tmin": "0",
        "Tmax": "0"
    },
    "LiquidHeatCapacityCp": {
        "eqno": "16",
        "A": "72077",
        "B": "1068.4",
        "C": "-6.4275",
        "D": "0.06878",
        "E": "-0.000079154",
        "Tmin": "150.15",
        "Tmax": "294"
    },
    "IdealGasHeatCapacityCp": {
        "eqno": "16",
        "A": "42578",
        "B": "-730.39",
        "C": "11.883",
        "D": "0.000033485",
        "E": "-3.0296E-08",
        "Tmin": "200",
        "Tmax": "1500"
    },
    "SecondVirialCoefficient": {
        "eqno": "104",
        "A": "0.078952",
        "B": "-74.81",
        "C": "-19.77",
        "D": "936.76",
        "E": "-8295.3",
        "Tmin": "230.5",
        "Tmax": "1844"
    },
    "LiquidViscosity": {
        "eqno": "101",
        "A": "-4.0316",
        "B": "623.05",
        "C": "-1.1589",
        "D": "8.4583E-07",
        "E": "2",
        "Tmin": "150.15",
        "Tmax": "444.26"
    },
    "VaporViscosity": {
        "eqno": "102",
        "A": "1.1933E-07",
        "B": "0.78879",
        "C": "65.293",
        "D": "1023.3",
        "Tmin": "150.15",
        "Tmax": "1000"
    },
    "LiquidThermalConductivity": {
        "eqno": "16",
        "A": "0.014392",
        "B": "-40.45",
        "C": "-0.67323",
        "D": "-0.0036191",
        "E": "0.0000011083",
        "Tmin": "150.15",
        "Tmax": "410.93"
    },
    "VaporThermalConductivity": {
        "eqno": "102",
        "A": "3.2627E-07",
        "B": "1.8293",
        "C": "-23.073",
        "D": "3397.7",
        "Tmin": "150.15",
        "Tmax": "994"
    },
    "SurfaceTension": {
        "eqno": "16",
        "A": "-0.038609",
        "B": "8.1469",
        "C": "-2.3156",
        "D": "-0.0012955",
        "E": "-0.0000017377",
        "Tmin": "150.15",
        "Tmax": "449.38"
    },
    "RPPHeatCapacityCp": {
        "eqno": "4",
        "A": "7716",
        "B": "182.3",
        "C": "-0.1007",
        "D": "0.0000238",
        "Tmin": "200",
        "Tmax": "1200"
    },
    "RelativeStaticPermittivity": {
        "eqno": "120",
        "A": "-25.20353",
        "B": "-10000",
        "C": "-65.4",
        "Tmin": "259.15",
        "Tmax": "429.15"
    },
    "AntoineVaporPressure": {
        "eqno": "10",
        "A": "22.688",
        "B": "3543.8",
        "C": "23.246",
        "Tmin": "282.85",
        "Tmax": "416.13"
    },
    "LiquidViscosityRPS": {
        "eqno": "13",
        "A": "-1.38",
        "B": "-0.03568",
        "C": "0.000039369",
        "Tmin": "150.15",
        "Tmax": "444.26"
    },
    "COSTALDVolume": "0.15309",
    "DiameterLJ": "6.120889E-10",
    "EnergyLJ": "132.7735",
    "FullerVolume": "47.15",
    "MatthiasCopemanC2": "-2.05829",
    "Parachor": "0.0217",
    "SpecificGravity": "0.778",
    "Charge": "0",
    "CostaldAcentricFactor": "0.26469",
    "WilsonVolume": "0.0564965",
    "UniquacR": "1.9",
    "UniquacQ": "1.8",
    "MatthiasCopemanC3": "3.58913",
    "ChaoSeaderAcentricFactor": "0.316685",
    "ChaoSeaderSolubilityParameter": "19818.5",
    "ChaoSeaderLiquidVolume": "0.0564965",
    "UnifacVLE": {
        "group": "1"
    },
    "UnifacLLE": {
        "group": "1"
    },
    "Asog": {
        "group": "1"
    },
    "Umr": {
        "group": "1"
    },
    "ModifiedUnifac": {
        "group": "1"
    },
    "CAS": "75-07-0",
    "Smiles": "CC=O"
}