{
    "LibraryIndex": "401",
    "CompoundID": "Acetylene",
    "StructureFormula": "HCCH",
    "Family": "15",
    "CriticalTemperature": "308.3",
    "CriticalPressure": "6114000",
    "CriticalVolume": "0.1122",
    "CriticalCompressibility": "0.268",
    "NormalBoilingPointTemperature": "188.4",
    "NormalMeltingPointTemperature": "192.4",
    "TriplePointTemperature": "192.4",
    "TriplePointPressure": "127445",
    "MolecularWeight": "26.03728",
    "LiquidVolumeAtNormalBoilingPoint": "0.04347",
    "AcentricityFactor": "0.189",
    "RadiusOfGyration": "7.439E-11",
    "SolubilityParameter": "7921",
    "DipoleMoment": "0",
    "VanDerWaalsVolume": "0.0231",
    "VanDerWaalsArea": "3.48E+08",
    "HeatOfFormation": "2.282E+08",
    "GibbsEnergyOfFormation": "2.1068E+08",
    "AbsEntropy": "200810",
    "HeatOfFusionAtMeltingPoint": "3770000",
    "MatthiasCopemanC1": "0.76366",
    "HeatOfCombustion": "-1.257E+09",
    "SolidDensity": {
        "eqno": "2",
        "A": "28.036",
        "B": "-1.6913E-08",
        "Tmin": "188.15",
        "Tmax": "197.65"
    },
    "LiquidDensity": {
        "eqno": "105",
        "A": "2.8265",
        "B": "0.29316",
        "C": "308.3",
        "D": "0.31711",
        "Tmin": "189.54",
        "Tmax": "307.8"
    },
    "VaporPressure": {
        "eqno": "101",
        "A": "82.22155",
        "B": "-3603.253",
        "C": "-10.0271",
        "D": "0.0000269397",
        "E": "2",
        "Tmin": "187.75",
        "Tmax": "308.33"
    },
    "HeatOfVaporization": {
        "eqno": "106",
        "A": "3.8817E+07",
        "B": "1.497",
        "C": "-1.0261",
        "D": "0.037348",
        "E": "-0.024401",
        "Tmin": "192.4",
        "Tmax": "308.7"
    },
    "SolidHeatCapacityCp": {
        "eqno": "1",
        "A": "36900",
        "Tmin": "174",
        "Tmax": "0"
    },
    "LiquidHeatCapacityCp": {
        "eqno": "16",
        "A": "79227",
        "B": "3177.2",
        "C": "-44.249",
        "D": "0.23814",
        "E": "-0.00030171",
        "Tmin": "192.4",
        "Tmax": "250"
    },
    "IdealGasHeatCapacityCp": {
        "eqno": "16",
        "A": "28271.69",
        "B": "-404.2493",
        "C": "11.05572",
        "D": "-0.000229636",
        "E": "1.424209E-07",
        "Tmin": "80",
        "Tmax": "1500"
    },
    "SecondVirialCoefficient": {
        "eqno": "104",
        "A": "0.032935",
        "B": "-6.0707",
        "C": "-4.922",
        "D": "119.69",
        "E": "-177.19",
        "Tmin": "154.16",
        "Tmax": "1541.65"
    },
    "LiquidViscosity": {
        "eqno": "101",
        "A": "-10.822",
        "B": "283.23",
        "C": "0.22007",
        "D": "-0.0000091126",
        "E": "2",
        "Tmin": "153.15",
        "Tmax": "300"
    },
    "VaporViscosity": {
        "eqno": "102",
        "A": "0.0000010997",
        "B": "0.50414",
        "C": "259.72",
        "D": "2787.3",
        "Tmin": "192.4",
        "Tmax": "600"
    },
    "LiquidThermalConductivity": {
        "eqno": "16",
        "A": "-0.060328",
        "B": "-110.3",
        "C": "0.44567",
        "D": "-0.0073832",
        "E": "0.0000024581",
        "Tmin": "192.4",
        "Tmax": "250"
    },
    "VaporThermalConductivity": {
        "eqno": "102",
        "A": "0.000078096",
        "B": "1.0286",
        "C": "-36.515",
        "D": "33144",
        "Tmin": "192.4",
        "Tmax": "1000"
    },
    "SurfaceTension": {
        "eqno": "16",
        "A": "-0.0058288",
        "B": "469.57",
        "C": "-10.144",
        "D": "0.036848",
        "E": "-0.000083224",
        "Tmin": "183.15",
        "Tmax": "301.71"
    },
    "RPPHeatCapacityCp": {
        "eqno": "100",
        "A": "20038",
        "B": "90.844",
        "C": "-0.021202",
        "D": "-0.000065684",
        "E": "4.3568E-08",
        "Tmin": "50",
        "Tmax": "1000"
    },
    "RelativeStaticPermittivity": {
        "eqno": "1",
        "A": "1.0217",
        "Tmin": "100",
        "Tmax": "1500"
    },
    "AntoineVaporPressure": {
        "eqno": "10",
        "A": "21.46",
        "B": "1724.2",
        "C": "-14.702",
        "Tmin": "192.59",
        "Tmax": "273.16"
    },
    "LiquidViscosityRPS": {
        "eqno": "13",
        "A": "-5.8124",
        "B": "-0.017889",
        "C": "0.000019784",
        "Tmin": "153.15",
        "Tmax": "273.15"
    },
    "COSTALDVolume": "0.16741",
    "DiameterLJ": "4.369994E-10",
    "EnergyLJ": "175.862",
    "RacketParameter": "0.2712",
    "FullerVolume": "36.42",
    "MatthiasCopemanC2": "0.47883",
    "Parachor": "0.0157",
    "SpecificGravity": "0.417053",
    "Charge": "0",
    "CostaldAcentricFactor": "0.20487",
    "WilsonVolume": "0.0421382",
    "UniquacR": "1.52",
    "UniquacQ": "1.39",
    "ApiSrkS2": "0.001831",
    "MatthiasCopemanC3": "-2.4245",
    "ChaoSeaderAcentricFactor": "0.1841",
    "ChaoSeaderSolubilityParameter": "18813",
    "ChaoSeaderLiquidVolume": "0.0421382",
    "UnifacVLE": {
        "group": "2"
    },
    "UnifacLLE": {
        "group": "2"
    },
    "Asog": {
        "group": "2"
    },
    "GCmethod": {
        "group": "1"
    },
    "Umr": {
        "group": "2"
    },
    "ModifiedUnifac": {
        "group": "2"
    },
    "CAS": "74-86-2",
    "Smiles": "C#C"
}