{
    "LibraryIndex": "1774",
    "CompoundID": "Acrylonitrile",
    "StructureFormula": "CH2CHCN",
    "Family": "38",
    "CriticalTemperature": "535",
    "CriticalPressure": "4480000",
    "CriticalVolume": "0.212",
    "CriticalCompressibility": "0.214",
    "NormalBoilingPointTemperature": "350.5",
    "NormalMeltingPointTemperature": "189.63",
    "TriplePointTemperature": "189.63",
    "TriplePointPressure": "3.68289",
    "MolecularWeight": "53.06262",
    "LiquidVolumeAtNormalBoilingPoint": "0.0662367",
    "AcentricityFactor": "0.349801",
    "RadiusOfGyration": "2.464E-10",
    "SolubilityParameter": "21560",
    "DipoleMoment": "1.29E-29",
    "VanDerWaalsVolume": "0.0351",
    "VanDerWaalsArea": "5.13E+08",
    "HeatOfFormation": "1.837E+08",
    "GibbsEnergyOfFormation": "1.937E+08",
    "AbsEntropy": "275300",
    "HeatOfFusionAtMeltingPoint": "6230000",
    "MatthiasCopemanC1": "1.2803",
    "HeatOfCombustion": "-1.69E+09",
    "SolidDensity": {
        "eqno": "2",
        "A": "21.906",
        "B": "-0.012833",
        "Tmin": "75.85",
        "Tmax": "189.63"
    },
    "LiquidDensity": {
        "eqno": "105",
        "A": "1.0816",
        "B": "0.2293",
        "C": "535",
        "D": "0.28939",
        "Tmin": "189.63",
        "Tmax": "535"
    },
    "VaporPressure": {
        "eqno": "101",
        "A": "74.54771",
        "B": "-6259.727",
        "C": "-7.785577",
        "D": "4.08032E-06",
        "E": "2",
        "Tmin": "189.63",
        "Tmax": "535"
    },
    "HeatOfVaporization": {
        "eqno": "106",
        "A": "5.224752E+07",
        "B": "0.877802",
        "C": "-0.432396",
        "D": "-0.672186",
        "E": "0.607598",
        "Tmin": "189.63",
        "Tmax": "535"
    },
    "SolidHeatCapacityCp": {
        "eqno": "100",
        "A": "378880",
        "B": "-12940",
        "C": "173.11",
        "D": "-0.95095",
        "E": "0.001872",
        "Tmin": "109.32",
        "Tmax": "183.69"
    },
    "LiquidHeatCapacityCp": {
        "eqno": "16",
        "A": "83847",
        "B": "240.59",
        "C": "6.8887",
        "D": "0.0095277",
        "E": "-0.0000046046",
        "Tmin": "189.63",
        "Tmax": "400"
    },
    "IdealGasHeatCapacityCp": {
        "eqno": "16",
        "A": "42651",
        "B": "-533.04",
        "C": "11.728",
        "D": "0.00013096",
        "E": "-6.2176E-08",
        "Tmin": "200",
        "Tmax": "1500"
    },
    "SecondVirialCoefficient": {
        "eqno": "104",
        "A": "0.16669",
        "B": "-180.08",
        "C": "-27.078",
        "D": "1693.8",
        "E": "-10134",
        "Tmin": "267.5",
        "Tmax": "2000"
    },
    "LiquidViscosity": {
        "eqno": "101",
        "A": "-0.5429",
        "B": "318.29",
        "C": "-1.481",
        "D": "-8.3759E-07",
        "E": "2",
        "Tmin": "220",
        "Tmax": "435"
    },
    "VaporViscosity": {
        "eqno": "102",
        "A": "4.616E-08",
        "B": "0.90278",
        "C": "67.424",
        "D": "-1672.6",
        "Tmin": "189.63",
        "Tmax": "1000"
    },
    "LiquidThermalConductivity": {
        "eqno": "16",
        "A": "-0.15669",
        "B": "19.22",
        "C": "-1.0721",
        "D": "0.00025871",
        "E": "-0.0000022582",
        "Tmin": "189.63",
        "Tmax": "350.5"
    },
    "VaporThermalConductivity": {
        "eqno": "102",
        "A": "0.0012317",
        "B": "1.2472",
        "C": "60863",
        "D": "-1968600",
        "Tmin": "189.63",
        "Tmax": "990.5"
    },
    "SurfaceTension": {
        "eqno": "16",
        "A": "-0.031468",
        "B": "13.152",
        "C": "-2.5363",
        "D": "-0.00042782",
        "E": "-0.0000025175",
        "Tmin": "189.63",
        "Tmax": "535"
    },
    "RPPHeatCapacityCp": {
        "eqno": "4",
        "A": "10676.73",
        "B": "220.6432",
        "C": "-0.156498",
        "D": "0.0000460366",
        "Tmin": "200",
        "Tmax": "1200"
    },
    "RelativeStaticPermittivity": {
        "eqno": "120",
        "A": "-18.507",
        "B": "-10000",
        "C": "-99",
        "Tmin": "275",
        "Tmax": "445"
    },
    "AntoineVaporPressure": {
        "eqno": "10",
        "A": "23.64",
        "B": "4865.9",
        "C": "50.629",
        "Tmin": "323.15",
        "Tmax": "480.47"
    },
    "LiquidViscosityRPS": {
        "eqno": "13",
        "A": "-3.2702",
        "B": "-0.022461",
        "C": "0.000022239",
        "Tmin": "220",
        "Tmax": "350.5"
    },
    "COSTALDVolume": "0.186019",
    "DiameterLJ": "7.077183E-10",
    "EnergyLJ": "135.7552",
    "RacketParameter": "0.220797",
    "FullerVolume": "59.17",
    "MatthiasCopemanC2": "-2.1648",
    "Parachor": "0.0272",
    "SpecificGravity": "0.805",
    "Charge": "0",
    "CostaldAcentricFactor": "0.349801",
    "WilsonVolume": "0.0662367",
    "UniquacR": "2.31",
    "UniquacQ": "2.05",
    "MatthiasCopemanC3": "3.1533",
    "ChaoSeaderAcentricFactor": "0.349801",
    "ChaoSeaderSolubilityParameter": "21555.4",
    "ChaoSeaderLiquidVolume": "0.0662367",
    "UnifacVLE": {
        "group": "1"
    },
    "Asog": {
        "group": "1"
    },
    "GCmethod": {
        "group": "1"
    },
    "Umr": {
        "group": "1"
    },
    "ModifiedUnifac": {
        "group": "1"
    },
    "CAS": "107-13-1",
    "Smiles": "C=CC#N"
}