{
    "LibraryIndex": "1277",
    "CompoundID": "Acrylic acid",
    "StructureFormula": "CH2CHCOOH",
    "Family": "51",
    "CriticalTemperature": "654.15",
    "CriticalPressure": "5664070",
    "CriticalVolume": "0.210712",
    "CriticalCompressibility": "0.23",
    "NormalBoilingPointTemperature": "414.15",
    "NormalMeltingPointTemperature": "286.15",
    "TriplePointTemperature": "286.15",
    "TriplePointPressure": "257.117",
    "MolecularWeight": "72.06266",
    "LiquidVolumeAtNormalBoilingPoint": "0.068927",
    "AcentricityFactor": "0.220736",
    "RadiusOfGyration": "2.978E-10",
    "SolubilityParameter": "19230",
    "DipoleMoment": "4.87E-30",
    "VanDerWaalsVolume": "0.04015",
    "VanDerWaalsArea": "6.0E+08",
    "HeatOfFormation": "-3.371E+08",
    "GibbsEnergyOfFormation": "-2.861E+08",
    "AbsEntropy": "315000",
    "HeatOfFusionAtMeltingPoint": "1.117E+07",
    "MatthiasCopemanC1": "0.86",
    "HeatOfCombustion": "-1.28022E+09",
    "SolidDensity": {
        "eqno": "2",
        "A": "17.984",
        "B": "-4.7488E-17",
        "C": "0",
        "D": "0",
        "E": "0",
        "Tmin": "0",
        "Tmax": "9.5"
    },
    "LiquidDensity": {
        "eqno": "105",
        "A": "0.11535",
        "B": "0.078693",
        "C": "654.15",
        "D": "0.16945",
        "Tmin": "285.15",
        "Tmax": "597.69"
    },
    "VaporPressure": {
        "eqno": "101",
        "A": "55.86645",
        "B": "-7062.889",
        "C": "-4.564151",
        "D": "1.238643E-06",
        "E": "2",
        "Tmin": "276.65",
        "Tmax": "615"
    },
    "HeatOfVaporization": {
        "eqno": "106",
        "A": "6.9258E+07",
        "B": "1.9796",
        "C": "2.7587",
        "D": "-12.283",
        "E": "8.2823",
        "Tmin": "286.15",
        "Tmax": "615"
    },
    "SolidHeatCapacityCp": {
        "eqno": "100",
        "A": "4218.5",
        "B": "513.93",
        "C": "-0.95712",
        "D": "0.0023227",
        "E": "-0.0000024814",
        "Tmin": "50",
        "Tmax": "286.15"
    },
    "LiquidHeatCapacityCp": {
        "eqno": "16",
        "A": "142250",
        "B": "1837.1",
        "C": "-38.373",
        "D": "0.21763",
        "E": "-0.00027035",
        "Tmin": "252.65",
        "Tmax": "375"
    },
    "IdealGasHeatCapacityCp": {
        "eqno": "16",
        "A": "49916",
        "B": "-589.6",
        "C": "12.259",
        "D": "-0.00013536",
        "E": "3.0855E-08",
        "Tmin": "250",
        "Tmax": "1500"
    },
    "LiquidViscosity": {
        "eqno": "101",
        "A": "-113.67",
        "B": "5526.6",
        "C": "15.75",
        "D": "-0.000015983",
        "E": "2",
        "Tmin": "286.15",
        "Tmax": "554"
    },
    "VaporViscosity": {
        "eqno": "102",
        "A": "2.4666E-07",
        "B": "0.69704",
        "C": "207.66",
        "D": "-6104.4",
        "Tmin": "286.15",
        "Tmax": "1000"
    },
    "LiquidThermalConductivity": {
        "eqno": "16",
        "A": "-0.40695",
        "B": "33.472",
        "C": "-0.79449",
        "D": "0.00078306",
        "E": "-0.0000013868",
        "Tmin": "184.5",
        "Tmax": "484.5"
    },
    "VaporThermalConductivity": {
        "eqno": "102",
        "A": "0.00092475",
        "B": "0.70367",
        "C": "626.1",
        "D": "112700",
        "Tmin": "286.15",
        "Tmax": "1000"
    },
    "SurfaceTension": {
        "eqno": "16",
        "A": "0.00036116",
        "B": "2216",
        "C": "-21.799",
        "D": "0.051947",
        "E": "-0.000052793",
        "Tmin": "286.15",
        "Tmax": "615"
    },
    "RPPHeatCapacityCp": {
        "eqno": "4",
        "A": "8237.7",
        "B": "284.59",
        "C": "-0.1807",
        "D": "0.00004331",
        "Tmin": "250",
        "Tmax": "1500"
    },
    "AntoineVaporPressure": {
        "eqno": "10",
        "A": "22.386",
        "B": "3741",
        "C": "-69.977",
        "Tmin": "393.15",
        "Tmax": "582.16"
    },
    "LiquidViscosityRPS": {
        "eqno": "12",
        "A": "-3.8047",
        "B": "-0.010482",
        "Tmin": "286.15",
        "Tmax": "460"
    },
    "COSTALDVolume": "0.212878",
    "DiameterLJ": "6.477409E-10",
    "EnergyLJ": "215.1844",
    "RacketParameter": "0.23",
    "FullerVolume": "69.16",
    "MatthiasCopemanC2": "0",
    "Parachor": "0.0283784",
    "SpecificGravity": "1.058208",
    "Charge": "0",
    "CostaldAcentricFactor": "0.220736",
    "WilsonVolume": "0.068927",
    "UniquacR": "2.6467",
    "UniquacQ": "2.4",
    "MatthiasCopemanC3": "0",
    "ChaoSeaderAcentricFactor": "0.538324",
    "ChaoSeaderSolubilityParameter": "19230",
    "ChaoSeaderLiquidVolume": "0.068927",
    "UnifacVLE": {
        "group": "1"
    },
    "UnifacLLE": {
        "group": "1"
    },
    "Asog": {
        "group": "1"
    },
    "Umr": {
        "group": "1"
    },
    "ModifiedUnifac": {
        "group": "1"
    },
    "CAS": "79-10-7",
    "Smiles": "C=CC(=O)O"
}