{
    "LibraryIndex": "1792",
    "CompoundID": "Aniline",
    "StructureFormula": "C6H5NH2",
    "Family": "36",
    "CriticalTemperature": "699",
    "CriticalPressure": "5310000",
    "CriticalVolume": "0.2739",
    "CriticalCompressibility": "0.256",
    "NormalBoilingPointTemperature": "457.17",
    "NormalMeltingPointTemperature": "267.13",
    "TriplePointTemperature": "267.13",
    "TriplePointPressure": "7.13219",
    "MolecularWeight": "93.12648",
    "LiquidVolumeAtNormalBoilingPoint": "0.09152",
    "AcentricityFactor": "0.38",
    "RadiusOfGyration": "3.436E-10",
    "SolubilityParameter": "24120",
    "DipoleMoment": "5.1E-30",
    "VanDerWaalsVolume": "0.05638",
    "VanDerWaalsArea": "7.04E+08",
    "HeatOfFormation": "8.71E+07",
    "GibbsEnergyOfFormation": "1.668E+08",
    "AbsEntropy": "319800",
    "HeatOfFusionAtMeltingPoint": "1.054E+07",
    "MatthiasCopemanC1": "1.23512",
    "HeatOfCombustion": "-3.239E+09",
    "SolidDensity": {
        "eqno": "2",
        "A": "14.175",
        "B": "-0.0058627",
        "Tmin": "106.85",
        "Tmax": "267.13"
    },
    "LiquidDensity": {
        "eqno": "105",
        "A": "1.0034",
        "B": "0.27828",
        "C": "699.16",
        "D": "0.26553",
        "Tmin": "263.15",
        "Tmax": "699.15"
    },
    "VaporPressure": {
        "eqno": "101",
        "A": "51.415",
        "B": "-7256.776",
        "C": "-3.968851",
        "D": "1.89237E-06",
        "E": "1.941839",
        "Tmin": "267.13",
        "Tmax": "699.15"
    },
    "HeatOfVaporization": {
        "eqno": "106",
        "A": "6.518054E+07",
        "B": "-0.829815",
        "C": "5.221579",
        "D": "-7.587726",
        "E": "3.672676",
        "Tmin": "267.13",
        "Tmax": "699.15"
    },
    "SolidHeatCapacityCp": {
        "eqno": "100",
        "A": "3106",
        "B": "718.22",
        "C": "-3.6674",
        "D": "0.016118",
        "E": "-0.000021313",
        "Tmin": "40",
        "Tmax": "267.13"
    },
    "LiquidHeatCapacityCp": {
        "eqno": "16",
        "A": "113560",
        "B": "-229.45",
        "C": "12.348",
        "D": "-0.001777",
        "E": "0.0000025731",
        "Tmin": "267.13",
        "Tmax": "457.15"
    },
    "IdealGasHeatCapacityCp": {
        "eqno": "16",
        "A": "53776",
        "B": "-561.43",
        "C": "12.878",
        "D": "-0.00018357",
        "E": "4.6595E-08",
        "Tmin": "200",
        "Tmax": "1500"
    },
    "SecondVirialCoefficient": {
        "eqno": "104",
        "A": "0.043471",
        "B": "-226.46",
        "C": "-55.939",
        "D": "-9629.2",
        "E": "9349.5",
        "Tmin": "260",
        "Tmax": "1500"
    },
    "LiquidViscosity": {
        "eqno": "101",
        "A": "-411.9909",
        "B": "17880.72",
        "C": "61.83069",
        "D": "-0.0000659764",
        "E": "2",
        "Tmin": "267.13",
        "Tmax": "559.2"
    },
    "VaporViscosity": {
        "eqno": "102",
        "A": "1.8398E-07",
        "B": "0.71832",
        "C": "209.33",
        "D": "-5579.1",
        "Tmin": "267.13",
        "Tmax": "1000"
    },
    "LiquidThermalConductivity": {
        "eqno": "16",
        "A": "0.065783",
        "B": "-186.09",
        "C": "-0.85045",
        "D": "-0.0016475",
        "E": "-0.0000028261",
        "Tmin": "267.13",
        "Tmax": "633.15"
    },
    "VaporThermalConductivity": {
        "eqno": "102",
        "A": "0.00025341",
        "B": "0.90822",
        "C": "897.01",
        "D": "-19862",
        "Tmin": "267.13",
        "Tmax": "1000"
    },
    "SurfaceTension": {
        "eqno": "16",
        "A": "-0.05644",
        "B": "-22.461",
        "C": "-1.8774",
        "D": "-0.0010936",
        "E": "-4.1576E-07",
        "Tmin": "267.13",
        "Tmax": "699"
    },
    "RPPHeatCapacityCp": {
        "eqno": "100",
        "A": "21601",
        "B": "165.76",
        "C": "0.70158",
        "D": "-0.0011115",
        "E": "0.0000004681",
        "Tmin": "50",
        "Tmax": "1000"
    },
    "RelativeStaticPermittivity": {
        "eqno": "120",
        "A": "-5.694498",
        "B": "-3535",
        "C": "-21.21",
        "Tmin": "279.15",
        "Tmax": "449.15"
    },
    "AntoineVaporPressure": {
        "eqno": "10",
        "A": "21.729",
        "B": "3936.8",
        "C": "-71.33",
        "Tmin": "420.7",
        "Tmax": "623.15"
    },
    "LiquidViscosityRPS": {
        "eqno": "13",
        "A": "7.3538",
        "B": "-0.06058",
        "C": "0.000058645",
        "Tmin": "267.13",
        "Tmax": "559.2"
    },
    "COSTALDVolume": "0.2901",
    "DiameterLJ": "6.21662E-10",
    "EnergyLJ": "338.1071",
    "FullerVolume": "97.80999",
    "MatthiasCopemanC2": "-1.62382",
    "Parachor": "0.0422",
    "SpecificGravity": "1.02441",
    "Charge": "0",
    "CostaldAcentricFactor": "0.38089",
    "WilsonVolume": "0.0916034",
    "UniquacR": "3.72",
    "UniquacQ": "2.82",
    "MatthiasCopemanC3": "3.45596",
    "ChaoSeaderAcentricFactor": "0.404143",
    "ChaoSeaderSolubilityParameter": "24125.7",
    "ChaoSeaderLiquidVolume": "0.0916034",
    "UnifacVLE": {
        "group": "1"
    },
    "UnifacLLE": {
        "group": "1"
    },
    "Asog": {
        "group": "1"
    },
    "Umr": {
        "group": "1"
    },
    "ModifiedUnifac": {
        "group": "1"
    },
    "CAS": "62-53-3",
    "Smiles": "c1(N)ccccc1"
}