{
    "LibraryIndex": "1461",
    "CompoundID": "Anisole",
    "StructureFormula": "C6H5OCH3",
    "Family": "62",
    "CriticalTemperature": "642.15",
    "CriticalPressure": "4180000",
    "CriticalVolume": "0.337",
    "CriticalCompressibility": "0.267",
    "NormalBoilingPointTemperature": "426.95",
    "NormalMeltingPointTemperature": "235.85",
    "TriplePointTemperature": "235.65",
    "TriplePointPressure": "2.44662",
    "MolecularWeight": "108.1378",
    "LiquidVolumeAtNormalBoilingPoint": "0.109167",
    "AcentricityFactor": "0.350169",
    "RadiusOfGyration": "3.719E-10",
    "SolubilityParameter": "20110",
    "DipoleMoment": "4.54E-30",
    "VanDerWaalsVolume": "0.06321",
    "VanDerWaalsArea": "8.02E+08",
    "HeatOfFormation": "-6.8E+07",
    "GibbsEnergyOfFormation": "2.27E+07",
    "AbsEntropy": "361000",
    "HeatOfFusionAtMeltingPoint": "9600000",
    "MatthiasCopemanC1": "0.97849",
    "HeatOfCombustion": "-3.6018E+09",
    "SolidDensity": {
        "eqno": "2",
        "A": "12.268",
        "B": "-0.0057985",
        "C": "0",
        "D": "0",
        "E": "0",
        "Tmin": "94.26",
        "Tmax": "235.65"
    },
    "LiquidDensity": {
        "eqno": "105",
        "A": "0.67524",
        "B": "0.24431",
        "C": "645.61",
        "D": "0.26239",
        "Tmin": "235.65",
        "Tmax": "645.6"
    },
    "VaporPressure": {
        "eqno": "101",
        "A": "117.0581",
        "B": "-9318.991",
        "C": "-14.12565",
        "D": "9.850515E-06",
        "E": "2",
        "Tmin": "235.65",
        "Tmax": "645.6"
    },
    "HeatOfVaporization": {
        "eqno": "106",
        "A": "6.1782E+07",
        "B": "0.29654",
        "C": "0.81637",
        "D": "-1.3762",
        "E": "0.64684",
        "Tmin": "235.65",
        "Tmax": "624.02"
    },
    "SolidHeatCapacityCp": {
        "eqno": "100",
        "A": "25569",
        "B": "-54.962",
        "C": "8.9953",
        "D": "-0.053617",
        "E": "0.00010624",
        "Tmin": "50",
        "Tmax": "235.6"
    },
    "LiquidHeatCapacityCp": {
        "eqno": "16",
        "A": "128070",
        "B": "-77.615",
        "C": "10.002",
        "D": "0.0059631",
        "E": "-0.0000043683",
        "Tmin": "245.2",
        "Tmax": "484.2"
    },
    "IdealGasHeatCapacityCp": {
        "eqno": "16",
        "A": "-116340",
        "B": "-170.41",
        "C": "12.829",
        "D": "0.00034368",
        "E": "-1.0767E-07",
        "Tmin": "235.65",
        "Tmax": "1200"
    },
    "SecondVirialCoefficient": {
        "eqno": "104",
        "A": "0.24272",
        "B": "-330.37",
        "C": "-37.811",
        "D": "-176890",
        "E": "557310",
        "Tmin": "366.91",
        "Tmax": "1760.88"
    },
    "LiquidViscosity": {
        "eqno": "101",
        "A": "-16.864",
        "B": "1572.6",
        "C": "0.82898",
        "D": "-2.2828E-07",
        "E": "2",
        "Tmin": "235.65",
        "Tmax": "542"
    },
    "VaporViscosity": {
        "eqno": "102",
        "A": "1.7587E-07",
        "B": "0.71998",
        "C": "171.18",
        "D": "1705.8",
        "Tmin": "235.65",
        "Tmax": "1000"
    },
    "LiquidThermalConductivity": {
        "eqno": "16",
        "A": "-0.15959",
        "B": "21.142",
        "C": "-1.1373",
        "D": "-0.0000023738",
        "E": "-0.0000009757",
        "Tmin": "192.5",
        "Tmax": "512.5"
    },
    "VaporThermalConductivity": {
        "eqno": "102",
        "A": "0.00055356",
        "B": "0.7624",
        "C": "342.48",
        "D": "235670",
        "Tmin": "235.65",
        "Tmax": "1000"
    },
    "SurfaceTension": {
        "eqno": "16",
        "A": "-0.01028",
        "B": "76.185",
        "C": "-3.3574",
        "D": "0.001879",
        "E": "-0.0000062433",
        "Tmin": "235.65",
        "Tmax": "624.02"
    },
    "RPPHeatCapacityCp": {
        "eqno": "4",
        "A": "-76587",
        "B": "835.59",
        "C": "-0.72557",
        "D": "0.00024575",
        "Tmin": "235.65",
        "Tmax": "1200"
    },
    "RelativeStaticPermittivity": {
        "eqno": "120",
        "A": "-3.251956",
        "B": "-2150",
        "C": "-12.9",
        "Tmin": "278.5945",
        "Tmax": "448.5945"
    },
    "AntoineVaporPressure": {
        "eqno": "10",
        "A": "21.389",
        "B": "3602.4",
        "C": "-61.82",
        "Tmin": "385.45",
        "Tmax": "568.15"
    },
    "LiquidViscosityRPS": {
        "eqno": "12",
        "A": "-3.2274",
        "B": "-0.012042",
        "Tmin": "235.65",
        "Tmax": "426.73"
    },
    "COSTALDVolume": "0.338527",
    "DiameterLJ": "6.333466E-10",
    "EnergyLJ": "361.4017",
    "RacketParameter": "0.267",
    "FullerVolume": "117.59",
    "MatthiasCopemanC2": "0",
    "Parachor": "0.0469574",
    "SpecificGravity": "0.999625",
    "Charge": "0",
    "CostaldAcentricFactor": "0.350169",
    "WilsonVolume": "0.109167",
    "UniquacR": "4.1667",
    "UniquacQ": "3.208",
    "MatthiasCopemanC3": "0",
    "ChaoSeaderAcentricFactor": "0.350169",
    "ChaoSeaderSolubilityParameter": "20110",
    "ChaoSeaderLiquidVolume": "0.109167",
    "UnifacVLE": {
        "group": "5"
    },
    "UnifacLLE": {
        "group": "5"
    },
    "Asog": {
        "group": "1"
    },
    "Umr": {
        "group": "5"
    },
    "ModifiedUnifac": {
        "group": "5"
    },
    "CAS": "100-66-3",
    "Smiles": "c1ccccc1(OC)"
}