{
    "LibraryIndex": "1281",
    "CompoundID": "Benzoic acid",
    "StructureFormula": "(C6H5)COOH",
    "Family": "53",
    "CriticalTemperature": "751",
    "CriticalPressure": "4470000",
    "CriticalVolume": "0.344",
    "CriticalCompressibility": "0.246",
    "NormalBoilingPointTemperature": "523.15",
    "NormalMeltingPointTemperature": "395.55",
    "TriplePointTemperature": "395.45",
    "TriplePointPressure": "795.501",
    "MolecularWeight": "122.1213",
    "LiquidVolumeAtNormalBoilingPoint": "0.112442",
    "AcentricityFactor": "0.602794",
    "RadiusOfGyration": "4.059E-10",
    "SolubilityParameter": "24590",
    "DipoleMoment": "3.34E-30",
    "VanDerWaalsVolume": "0.06558",
    "VanDerWaalsArea": "8.41E+08",
    "HeatOfFormation": "-2.902E+08",
    "GibbsEnergyOfFormation": "-2.142E+08",
    "AbsEntropy": "369000",
    "HeatOfFusionAtMeltingPoint": "1.807E+07",
    "MatthiasCopemanC1": "1.41302",
    "HeatOfCombustion": "-3.0951E+09",
    "SolidDensity": {
        "eqno": "2",
        "A": "11.523",
        "B": "-0.0023742",
        "C": "0",
        "D": "0",
        "E": "0",
        "Tmin": "78.15",
        "Tmax": "395.45"
    },
    "LiquidDensity": {
        "eqno": "105",
        "A": "0.7147",
        "B": "0.24811",
        "C": "751",
        "D": "0.28445",
        "Tmin": "394.65",
        "Tmax": "751"
    },
    "VaporPressure": {
        "eqno": "101",
        "A": "444.4847",
        "B": "-30166.81",
        "C": "-61.25117",
        "D": "0.000029739",
        "E": "2",
        "Tmin": "373.15",
        "Tmax": "751"
    },
    "HeatOfVaporization": {
        "eqno": "106",
        "A": "6.7437E+07",
        "B": "0.13946",
        "C": "-2.3071",
        "D": "5.0416",
        "E": "-2.5138",
        "Tmin": "395.45",
        "Tmax": "751"
    },
    "SolidHeatCapacityCp": {
        "eqno": "100",
        "A": "1801.4",
        "B": "920.19",
        "C": "-4.2178",
        "D": "0.013624",
        "E": "-0.000014613",
        "Tmin": "30",
        "Tmax": "395.52"
    },
    "LiquidHeatCapacityCp": {
        "eqno": "16",
        "A": "78008",
        "B": "1056.8",
        "C": "2.5621",
        "D": "0.02421",
        "E": "-0.000017579",
        "Tmin": "395.45",
        "Tmax": "450"
    },
    "IdealGasHeatCapacityCp": {
        "eqno": "16",
        "A": "71253",
        "B": "-905.31",
        "C": "13.682",
        "D": "-0.00087786",
        "E": "2.5351E-07",
        "Tmin": "200",
        "Tmax": "1500"
    },
    "LiquidViscosity": {
        "eqno": "101",
        "A": "-204.19",
        "B": "11713",
        "C": "28.642",
        "D": "-0.000020228",
        "E": "2",
        "Tmin": "395.52",
        "Tmax": "600.8"
    },
    "VaporViscosity": {
        "eqno": "102",
        "A": "7.426E-08",
        "B": "0.8289",
        "C": "91.171",
        "D": "5.6616",
        "Tmin": "395.45",
        "Tmax": "1000"
    },
    "LiquidThermalConductivity": {
        "eqno": "16",
        "A": "-0.26694",
        "B": "24.352",
        "C": "-0.89204",
        "D": "0.00010336",
        "E": "-5.9141E-07",
        "Tmin": "225.3",
        "Tmax": "596"
    },
    "VaporThermalConductivity": {
        "eqno": "102",
        "A": "0.000021559",
        "B": "1.1593",
        "C": "126.16",
        "D": "64371",
        "Tmin": "274",
        "Tmax": "1000"
    },
    "SurfaceTension": {
        "eqno": "16",
        "A": "-0.018071",
        "B": "-333.25",
        "C": "-0.48157",
        "D": "-0.0043141",
        "E": "2.3966E-07",
        "Tmin": "395.45",
        "Tmax": "751"
    },
    "RPPHeatCapacityCp": {
        "eqno": "4",
        "A": "-22579",
        "B": "512.65",
        "C": "-0.28424",
        "D": "0.000055985",
        "Tmin": "200",
        "Tmax": "1500"
    },
    "AntoineVaporPressure": {
        "eqno": "10",
        "A": "22.577",
        "B": "4593.4",
        "C": "-107.46",
        "Tmin": "451.59",
        "Tmax": "657.43"
    },
    "LiquidViscosityRPS": {
        "eqno": "12",
        "A": "-2.0682",
        "B": "-0.011311",
        "Tmin": "395.52",
        "Tmax": "600.8"
    },
    "COSTALDVolume": "0.351828",
    "DiameterLJ": "7.035727E-10",
    "EnergyLJ": "314.7165",
    "RacketParameter": "0.246",
    "FullerVolume": "119.08",
    "MatthiasCopemanC2": "0",
    "Parachor": "0.04397",
    "SpecificGravity": "1.185846",
    "Charge": "0",
    "CostaldAcentricFactor": "0.602794",
    "WilsonVolume": "0.112442",
    "UniquacR": "4.323",
    "UniquacQ": "3.344",
    "MatthiasCopemanC3": "0",
    "ChaoSeaderAcentricFactor": "0.602794",
    "ChaoSeaderSolubilityParameter": "24590",
    "ChaoSeaderLiquidVolume": "0.112442",
    "UnifacVLE": {
        "group": "1"
    },
    "UnifacLLE": {
        "group": "1"
    },
    "Asog": {
        "group": "1"
    },
    "Umr": {
        "group": "1"
    },
    "ModifiedUnifac": {
        "group": "1"
    },
    "CAS": "65-85-0",
    "Smiles": "c1ccccc1(C(=O)O)"
}