{
    "LibraryIndex": "922",
    "CompoundID": "Bromine",
    "StructureFormula": "BrBr",
    "Family": "74",
    "CriticalTemperature": "584.15",
    "CriticalPressure": "1.03E+07",
    "CriticalVolume": "0.135",
    "CriticalCompressibility": "0.286",
    "NormalBoilingPointTemperature": "331.9",
    "NormalMeltingPointTemperature": "265.9",
    "TriplePointTemperature": "265.85",
    "TriplePointPressure": "5853.37",
    "MolecularWeight": "159.808",
    "LiquidVolumeAtNormalBoilingPoint": "0.0514795",
    "AcentricityFactor": "0.128997",
    "RadiusOfGyration": "9.69E-11",
    "SolubilityParameter": "23590",
    "DipoleMoment": "0",
    "VanDerWaalsVolume": "0.0288",
    "VanDerWaalsArea": "4.18E+08",
    "HeatOfFormation": "3.091E+07",
    "GibbsEnergyOfFormation": "3140000",
    "AbsEntropy": "245350",
    "HeatOfFusionAtMeltingPoint": "1.057E+07",
    "MatthiasCopemanC1": "0.68333",
    "HeatOfCombustion": "0",
    "SolidDensity": {
        "eqno": "2",
        "A": "25.7",
        "B": "1.8384E-08",
        "Tmin": "79.15",
        "Tmax": "88.65"
    },
    "LiquidDensity": {
        "eqno": "105",
        "A": "2.0603",
        "B": "0.28982",
        "C": "584.15",
        "D": "0.28948",
        "Tmin": "265.85",
        "Tmax": "584.15"
    },
    "VaporPressure": {
        "eqno": "101",
        "A": "63.657",
        "B": "-5321.6",
        "C": "-6.3199",
        "D": "0.0000054412",
        "E": "2",
        "Tmin": "265.15",
        "Tmax": "584.15"
    },
    "HeatOfVaporization": {
        "eqno": "106",
        "A": "3.8419E+07",
        "B": "-0.26282",
        "C": "2.1808",
        "D": "-2.7529",
        "E": "1.1823",
        "Tmin": "265.85",
        "Tmax": "584.15"
    },
    "SolidHeatCapacityCp": {
        "eqno": "100",
        "A": "-8018.8",
        "B": "1284.8",
        "C": "-11.519",
        "D": "0.046329",
        "E": "-0.000065817",
        "Tmin": "15",
        "Tmax": "265.9"
    },
    "LiquidHeatCapacityCp": {
        "eqno": "16",
        "A": "75351",
        "B": "-4.87E+07",
        "C": "54033",
        "D": "102.73",
        "E": "0.43775",
        "Tmin": "265.9",
        "Tmax": "331.9"
    },
    "IdealGasHeatCapacityCp": {
        "eqno": "16",
        "A": "35000",
        "B": "-410",
        "C": "8.5",
        "D": "-0.00016",
        "E": "-0.00000001",
        "Tmin": "50",
        "Tmax": "1500"
    },
    "SecondVirialCoefficient": {
        "eqno": "104",
        "A": "0.073884",
        "B": "-101.75",
        "C": "-12.933",
        "D": "11359",
        "E": "-33103",
        "Tmin": "282.08",
        "Tmax": "2000"
    },
    "LiquidViscosity": {
        "eqno": "101",
        "A": "-5.9813",
        "B": "410.55",
        "C": "-0.30036",
        "D": "-0.000006936",
        "E": "2",
        "Tmin": "265.85",
        "Tmax": "350"
    },
    "VaporViscosity": {
        "eqno": "102",
        "A": "1.1438E-07",
        "B": "0.88111",
        "C": "59.595",
        "D": "-6723.3",
        "Tmin": "265.85",
        "Tmax": "600"
    },
    "LiquidThermalConductivity": {
        "eqno": "16",
        "A": "-0.69183",
        "B": "27.775",
        "C": "-0.38966",
        "D": "0.00057103",
        "E": "-8.8462E-07",
        "Tmin": "260",
        "Tmax": "584"
    },
    "VaporThermalConductivity": {
        "eqno": "102",
        "A": "0.0000065648",
        "B": "1.4785",
        "C": "4505.6",
        "D": "-870500",
        "Tmin": "265.85",
        "Tmax": "520"
    },
    "SurfaceTension": {
        "eqno": "16",
        "A": "-0.014274",
        "B": "235.98",
        "C": "-4.5131",
        "D": "0.0059159",
        "E": "-0.000010567",
        "Tmin": "265.85",
        "Tmax": "584.15"
    },
    "RPPHeatCapacityCp": {
        "eqno": "4",
        "A": "35550.42",
        "B": "3.836859",
        "C": "-0.0019729",
        "D": "3.186391E-07",
        "Tmin": "100",
        "Tmax": "1500"
    },
    "RelativeStaticPermittivity": {
        "eqno": "1",
        "A": "1.0128",
        "Tmin": "100",
        "Tmax": "1500"
    },
    "AntoineVaporPressure": {
        "eqno": "10",
        "A": "22.108",
        "B": "3517.5",
        "C": "1.886",
        "Tmin": "351.95",
        "Tmax": "517.14"
    },
    "LiquidViscosityRPS": {
        "eqno": "13",
        "A": "-3.1152",
        "B": "-0.015793",
        "C": "0.000010028",
        "Tmin": "265.85",
        "Tmax": "350"
    },
    "COSTALDVolume": "0.152689",
    "DiameterLJ": "4.29916E-10",
    "EnergyLJ": "421.071",
    "RacketParameter": "0.279241",
    "FullerVolume": "69",
    "MatthiasCopemanC2": "0",
    "Parachor": "0.0233",
    "SpecificGravity": "3.35803",
    "Charge": "0",
    "CostaldAcentricFactor": "0.108",
    "WilsonVolume": "0.0514795",
    "UniquacR": "1.8985",
    "UniquacQ": "1.672",
    "MatthiasCopemanC3": "0",
    "ChaoSeaderAcentricFactor": "0.108",
    "ChaoSeaderSolubilityParameter": "23591.8",
    "ChaoSeaderLiquidVolume": "0.0514795",
    "Umr": {
        "group": "1"
    },
    "CAS": "7726-95-6",
    "Smiles": "BrBr"
}