{
    "LibraryIndex": "1005",
    "CompoundID": "Butanal",
    "StructureFormula": "CH3CH2CH2CHO",
    "Family": "25",
    "CriticalTemperature": "521.15",
    "CriticalPressure": "4000000",
    "CriticalVolume": "0.263",
    "CriticalCompressibility": "0.25",
    "NormalBoilingPointTemperature": "347.95",
    "NormalMeltingPointTemperature": "176.75",
    "TriplePointTemperature": "176.75",
    "TriplePointPressure": "0.316993",
    "MolecularWeight": "72.10572",
    "LiquidVolumeAtNormalBoilingPoint": "0.0904328",
    "AcentricityFactor": "0.277417",
    "RadiusOfGyration": "3.185E-10",
    "SolubilityParameter": "18660",
    "DipoleMoment": "9.07E-30",
    "VanDerWaalsVolume": "0.04927",
    "VanDerWaalsArea": "7.19E+08",
    "HeatOfFormation": "-2.07E+08",
    "GibbsEnergyOfFormation": "-1.1539E+08",
    "AbsEntropy": "344900",
    "HeatOfFusionAtMeltingPoint": "1.109E+07",
    "MatthiasCopemanC1": "1.1626",
    "HeatOfCombustion": "-2.3035E+09",
    "SolidDensity": {
        "eqno": "2",
        "A": "14.988",
        "B": "-0.001057",
        "C": "0",
        "D": "0",
        "E": "0",
        "Tmin": "78.15",
        "Tmax": "176.75"
    },
    "LiquidDensity": {
        "eqno": "105",
        "A": "1.0715",
        "B": "0.2723",
        "C": "521.3",
        "D": "0.27225",
        "Tmin": "176.75",
        "Tmax": "521.29"
    },
    "VaporPressure": {
        "eqno": "101",
        "A": "99.51827",
        "B": "-7112.269",
        "C": "-11.7407",
        "D": "9.521179E-06",
        "E": "2",
        "Tmin": "176.75",
        "Tmax": "537.2"
    },
    "HeatOfVaporization": {
        "eqno": "106",
        "A": "4.118197E+07",
        "B": "-1.36073",
        "C": "5.949252",
        "D": "-7.213209",
        "E": "2.926745",
        "Tmin": "176.75",
        "Tmax": "518.23"
    },
    "SolidHeatCapacityCp": {
        "eqno": "100",
        "A": "9188.9",
        "B": "764.82",
        "C": "-3.4299",
        "D": "0.018702",
        "E": "-0.000037326",
        "Tmin": "80",
        "Tmax": "176.8"
    },
    "LiquidHeatCapacityCp": {
        "eqno": "16",
        "A": "146790",
        "B": "-6569.4",
        "C": "41.653",
        "D": "-0.01116",
        "E": "-0.000075065",
        "Tmin": "176.75",
        "Tmax": "328.29"
    },
    "IdealGasHeatCapacityCp": {
        "eqno": "16",
        "A": "84791",
        "B": "-954.83",
        "C": "13.167",
        "D": "-0.00050103",
        "E": "1.5222E-07",
        "Tmin": "200",
        "Tmax": "1500"
    },
    "SecondVirialCoefficient": {
        "eqno": "104",
        "A": "0.17145",
        "B": "-192.91",
        "C": "-29.941",
        "D": "-10155",
        "E": "12958",
        "Tmin": "268.6",
        "Tmax": "1500"
    },
    "LiquidViscosity": {
        "eqno": "101",
        "A": "-14.207",
        "B": "1014.9",
        "C": "0.55992",
        "D": "-0.0000018129",
        "E": "2",
        "Tmin": "176.75",
        "Tmax": "400"
    },
    "VaporViscosity": {
        "eqno": "102",
        "A": "9.4037E-07",
        "B": "0.50713",
        "C": "464.89",
        "D": "-11049",
        "Tmin": "176.75",
        "Tmax": "1000"
    },
    "LiquidThermalConductivity": {
        "eqno": "16",
        "A": "0.054171",
        "B": "0.30189",
        "C": "-1.9042",
        "D": "-0.00054405",
        "E": "-0.0000037387",
        "Tmin": "174.95",
        "Tmax": "382.15"
    },
    "VaporThermalConductivity": {
        "eqno": "102",
        "A": "784.27",
        "B": "0.98392",
        "C": "6.406E+09",
        "D": "-1.3461E+11",
        "Tmin": "176.75",
        "Tmax": "1000"
    },
    "SurfaceTension": {
        "eqno": "16",
        "A": "-0.0074594",
        "B": "191.36",
        "C": "-4.9677",
        "D": "0.0077444",
        "E": "-0.000016096",
        "Tmin": "176.75",
        "Tmax": "518.23"
    },
    "RPPHeatCapacityCp": {
        "eqno": "4",
        "A": "30948",
        "B": "264.36",
        "C": "-0.061487",
        "D": "-0.0000068962",
        "Tmin": "200",
        "Tmax": "1500"
    },
    "AntoineVaporPressure": {
        "eqno": "10",
        "A": "20.929",
        "B": "2779.4",
        "C": "-52.488",
        "Tmin": "312.85",
        "Tmax": "461.32"
    },
    "LiquidViscosityRPS": {
        "eqno": "12",
        "A": "-3.4747",
        "B": "-0.014139",
        "Tmin": "176.75",
        "Tmax": "348.05"
    },
    "COSTALDVolume": "0.261872",
    "DiameterLJ": "6.31009E-10",
    "EnergyLJ": "231.4515",
    "RacketParameter": "0.25",
    "FullerVolume": "88.19",
    "MatthiasCopemanC2": "-1.4313",
    "Parachor": "0.0356078",
    "SpecificGravity": "0.806991",
    "Charge": "0",
    "CostaldAcentricFactor": "0.277417",
    "WilsonVolume": "0.0904328",
    "UniquacR": "3.2479",
    "UniquacQ": "2.876",
    "MatthiasCopemanC3": "2.654",
    "ChaoSeaderAcentricFactor": "0.277417",
    "ChaoSeaderSolubilityParameter": "18660",
    "ChaoSeaderLiquidVolume": "0.0904328",
    "UnifacVLE": {
        "group": "1"
    },
    "UnifacLLE": {
        "group": "1"
    },
    "Asog": {
        "group": "1"
    },
    "Umr": {
        "group": "1"
    },
    "ModifiedUnifac": {
        "group": "1"
    },
    "CAS": "123-72-8",
    "Smiles": "CCCC=O"
}