{
    "LibraryIndex": "1447",
    "CompoundID": "Butyl vinyl ether",
    "StructureFormula": "C4H9OCHCH2",
    "Family": "61",
    "CriticalTemperature": "540.5",
    "CriticalPressure": "3200000",
    "CriticalVolume": "0.38362",
    "CriticalCompressibility": "0.273",
    "NormalBoilingPointTemperature": "367.131",
    "NormalMeltingPointTemperature": "181.15",
    "TriplePointTemperature": "181.15",
    "TriplePointPressure": "0.134811",
    "MolecularWeight": "100.1589",
    "LiquidVolumeAtNormalBoilingPoint": "0.130251",
    "AcentricityFactor": "0.358",
    "RadiusOfGyration": "3.806E-10",
    "SolubilityParameter": "16460",
    "DipoleMoment": "4.16955E-30",
    "VanDerWaalsVolume": "0.0684699",
    "VanDerWaalsArea": "9.71E+08",
    "HeatOfFormation": "-1.83E+08",
    "GibbsEnergyOfFormation": "-3.61974E+07",
    "AbsEntropy": "428000",
    "HeatOfFusionAtMeltingPoint": "1.38E+07",
    "MatthiasCopemanC1": "1.10759",
    "HeatOfCombustion": "-3.59144E+09",
    "SolidDensity": {
        "eqno": "2",
        "A": "11.146",
        "B": "-0.0067994",
        "C": "0",
        "D": "0",
        "E": "0",
        "Tmin": "72.46",
        "Tmax": "181.15"
    },
    "LiquidDensity": {
        "eqno": "105",
        "A": "0.51202",
        "B": "0.22443",
        "C": "540.5",
        "D": "0.25269",
        "Tmin": "181.15",
        "Tmax": "517.32"
    },
    "VaporPressure": {
        "eqno": "101",
        "A": "80.48089",
        "B": "-6835.53",
        "C": "-8.641032",
        "D": "5.192611E-06",
        "E": "2",
        "Tmin": "181.15",
        "Tmax": "536"
    },
    "HeatOfVaporization": {
        "eqno": "106",
        "A": "5.9857E+07",
        "B": "1.4054",
        "C": "-2.9112",
        "D": "3.3585",
        "E": "-1.4378",
        "Tmin": "181.15",
        "Tmax": "536"
    },
    "SolidHeatCapacityCp": {
        "eqno": "1",
        "A": "177040",
        "Tmin": "0",
        "Tmax": "540.5"
    },
    "LiquidHeatCapacityCp": {
        "eqno": "16",
        "A": "179060",
        "B": "294.15",
        "C": "4.464",
        "D": "0.023293",
        "E": "-0.000021892",
        "Tmin": "225",
        "Tmax": "366.97"
    },
    "IdealGasHeatCapacityCp": {
        "eqno": "16",
        "A": "70271",
        "B": "-440.11",
        "C": "12.531",
        "D": "0.00054467",
        "E": "-2.1666E-07",
        "Tmin": "273",
        "Tmax": "1500"
    },
    "SecondVirialCoefficient": {
        "eqno": "104",
        "A": "0.2416",
        "B": "-256",
        "C": "-40.57",
        "D": "859.83",
        "E": "-11281",
        "Tmin": "268",
        "Tmax": "2000"
    },
    "LiquidViscosity": {
        "eqno": "101",
        "A": "-13.973",
        "B": "1139.1",
        "C": "0.44727",
        "D": "-0.0000011861",
        "E": "2",
        "Tmin": "181.15",
        "Tmax": "440"
    },
    "VaporViscosity": {
        "eqno": "102",
        "A": "9.4315E-08",
        "B": "0.78571",
        "C": "41.584",
        "D": "9100.4",
        "Tmin": "366.97",
        "Tmax": "1000"
    },
    "LiquidThermalConductivity": {
        "eqno": "16",
        "A": "-0.13174",
        "B": "16.987",
        "C": "-1.2513",
        "D": "-0.000050242",
        "E": "-0.000001447",
        "Tmin": "160.8",
        "Tmax": "420.8"
    },
    "VaporThermalConductivity": {
        "eqno": "102",
        "A": "0.00002407",
        "B": "1.1842",
        "C": "65.04",
        "D": "40153",
        "Tmin": "181.15",
        "Tmax": "1000"
    },
    "SurfaceTension": {
        "eqno": "16",
        "A": "-0.010113",
        "B": "61.945",
        "C": "-3.4261",
        "D": "0.0012947",
        "E": "-0.0000069057",
        "Tmin": "181.15",
        "Tmax": "536"
    },
    "RPPHeatCapacityCp": {
        "eqno": "4",
        "A": "6738",
        "B": "536.06",
        "C": "-0.27187",
        "D": "0.000047059",
        "Tmin": "273",
        "Tmax": "1500"
    },
    "AntoineVaporPressure": {
        "eqno": "10",
        "A": "21.122",
        "B": "2983.4",
        "C": "-56.28",
        "Tmin": "330.56",
        "Tmax": "479.97"
    },
    "LiquidViscosityRPS": {
        "eqno": "12",
        "A": "-2.9306",
        "B": "-0.015656",
        "Tmin": "181.15",
        "Tmax": "366.97"
    },
    "COSTALDVolume": "0.368168",
    "DiameterLJ": "6.438977E-10",
    "EnergyLJ": "329.5296",
    "RacketParameter": "0.273",
    "FullerVolume": "131.54",
    "MatthiasCopemanC2": "-0.78288",
    "Parachor": "0.0496357",
    "SpecificGravity": "0.791941",
    "Charge": "0",
    "CostaldAcentricFactor": "0.358",
    "WilsonVolume": "0.130251",
    "UniquacR": "4.7403",
    "UniquacQ": "4.192",
    "MatthiasCopemanC3": "1.50681",
    "ChaoSeaderAcentricFactor": "0.358",
    "ChaoSeaderSolubilityParameter": "16460",
    "ChaoSeaderLiquidVolume": "0.130251",
    "UnifacVLE": {
        "group": "1"
    },
    "UnifacLLE": {
        "group": "1"
    },
    "Asog": {
        "group": "1"
    },
    "Umr": {
        "group": "1"
    },
    "ModifiedUnifac": {
        "group": "1"
    },
    "CAS": "111-34-2",
    "Smiles": "CCCCOC=C"
}