{
    "LibraryIndex": "1893",
    "CompoundID": "Carbonyl sulfide",
    "StructureFormula": "OCS",
    "Family": "24",
    "CriticalTemperature": "375.15",
    "CriticalPressure": "6349000",
    "CriticalVolume": "0.14",
    "CriticalCompressibility": "0.272",
    "NormalBoilingPointTemperature": "223.15",
    "NormalMeltingPointTemperature": "134.35",
    "TriplePointTemperature": "134.3",
    "TriplePointPressure": "101.325",
    "MolecularWeight": "60.0751",
    "LiquidVolumeAtNormalBoilingPoint": "0.0510474",
    "AcentricityFactor": "0.137779",
    "RadiusOfGyration": "1.176E-10",
    "SolubilityParameter": "14270",
    "DipoleMoment": "2.37E-30",
    "VanDerWaalsVolume": "0.0259",
    "VanDerWaalsArea": "4.05247E+08",
    "HeatOfFormation": "-1.3841E+08",
    "GibbsEnergyOfFormation": "-1.692E+08",
    "AbsEntropy": "231470",
    "HeatOfFusionAtMeltingPoint": "4725000",
    "MatthiasCopemanC1": "0.7",
    "HeatOfCombustion": "-5.4827E+08",
    "SolidDensity": {
        "eqno": "2",
        "A": "28.192",
        "B": "-0.022652",
        "C": "0",
        "D": "0",
        "E": "0",
        "Tmin": "53.72",
        "Tmax": "134.3"
    },
    "LiquidDensity": {
        "eqno": "105",
        "A": "1.8896",
        "B": "0.27226",
        "C": "378.81",
        "D": "0.25315",
        "Tmin": "134.3",
        "Tmax": "378.8"
    },
    "VaporPressure": {
        "eqno": "101",
        "A": "74.34266",
        "B": "-3813.497",
        "C": "-8.620386",
        "D": "0.0000180431",
        "E": "2",
        "Tmin": "134.3",
        "Tmax": "378.8"
    },
    "HeatOfVaporization": {
        "eqno": "106",
        "A": "3.0555E+07",
        "B": "0.84937",
        "C": "-0.32129",
        "D": "-0.52716",
        "E": "0.40226",
        "Tmin": "134.3",
        "Tmax": "365.93"
    },
    "SolidHeatCapacityCp": {
        "eqno": "100",
        "A": "-16418",
        "B": "1744.6",
        "C": "-20.143",
        "D": "0.10176",
        "E": "-0.00014754",
        "Tmin": "15.53",
        "Tmax": "131.07"
    },
    "LiquidHeatCapacityCp": {
        "eqno": "16",
        "A": "71808",
        "B": "-8528.4",
        "C": "73.159",
        "D": "-0.16854",
        "E": "0.00016953",
        "Tmin": "134.3",
        "Tmax": "378"
    },
    "IdealGasHeatCapacityCp": {
        "eqno": "16",
        "A": "28351",
        "B": "-363.89",
        "C": "10.752",
        "D": "-0.00019902",
        "E": "7.0945E-08",
        "Tmin": "100",
        "Tmax": "1500"
    },
    "SecondVirialCoefficient": {
        "eqno": "104",
        "A": "0.07781",
        "B": "-70.275",
        "C": "-3.5992",
        "D": "374.85",
        "E": "-723.14",
        "Tmin": "189.4",
        "Tmax": "1889.4"
    },
    "LiquidViscosity": {
        "eqno": "101",
        "A": "-9.091",
        "B": "494.42",
        "C": "-0.20653",
        "D": "-6.4588E-07",
        "E": "2",
        "Tmin": "134.3",
        "Tmax": "300.12"
    },
    "VaporViscosity": {
        "eqno": "102",
        "A": "0.000010184",
        "B": "0.2938",
        "C": "1012.7",
        "D": "-12250",
        "Tmin": "134.3",
        "Tmax": "1000"
    },
    "LiquidThermalConductivity": {
        "eqno": "16",
        "A": "0.032218",
        "B": "-41.011",
        "C": "-0.83624",
        "D": "-0.0051268",
        "E": "0.0000012154",
        "Tmin": "134.3",
        "Tmax": "223"
    },
    "VaporThermalConductivity": {
        "eqno": "102",
        "A": "0.0012701",
        "B": "0.60437",
        "C": "545.23",
        "D": "3627.6",
        "Tmin": "223",
        "Tmax": "1000"
    },
    "SurfaceTension": {
        "eqno": "16",
        "A": "-0.0021071",
        "B": "518.04",
        "C": "-11.034",
        "D": "0.04165",
        "E": "-0.000087273",
        "Tmin": "134.3",
        "Tmax": "365.93"
    },
    "RPPHeatCapacityCp": {
        "eqno": "4",
        "A": "21713",
        "B": "84.752",
        "C": "-0.070005",
        "D": "0.000020554",
        "Tmin": "100",
        "Tmax": "1500"
    },
    "AntoineVaporPressure": {
        "eqno": "10",
        "A": "21.073",
        "B": "1954.8",
        "C": "-19.521",
        "Tmin": "233.15",
        "Tmax": "333.15"
    },
    "LiquidViscosityRPS": {
        "eqno": "12",
        "A": "-4.2041",
        "B": "-0.017582",
        "Tmin": "134.3",
        "Tmax": "223"
    },
    "COSTALDVolume": "0.137387",
    "DiameterLJ": "4.621734E-10",
    "EnergyLJ": "225.718",
    "RacketParameter": "0.272",
    "FullerVolume": "44.91",
    "MatthiasCopemanC2": "0",
    "Parachor": "0.0194842",
    "SpecificGravity": "1.24",
    "Charge": "0",
    "CostaldAcentricFactor": "0.096",
    "WilsonVolume": "0.0510474",
    "UniquacR": "1.707317",
    "UniquacQ": "1.620988",
    "ApiSrkS1": "0.59245",
    "ApiSrkS2": "0.02642",
    "MatthiasCopemanC3": "0",
    "ChaoSeaderAcentricFactor": "0.096",
    "ChaoSeaderSolubilityParameter": "14270",
    "ChaoSeaderLiquidVolume": "0.0510474",
    "GCmethod": {
        "group": "1"
    },
    "Umr": {
        "group": "1"
    },
    "CAS": "463-58-1",
    "Smiles": "O=C=S"
}