{
    "LibraryIndex": "1938",
    "CompoundID": "Carbon disulfide",
    "StructureFormula": "SCS",
    "Family": "42",
    "CriticalTemperature": "552",
    "CriticalPressure": "7900000",
    "CriticalVolume": "0.16",
    "CriticalCompressibility": "0.275",
    "NormalBoilingPointTemperature": "319.375",
    "NormalMeltingPointTemperature": "161.58",
    "TriplePointTemperature": "161.11",
    "TriplePointPressure": "1.4944",
    "MolecularWeight": "76.1407",
    "LiquidVolumeAtNormalBoilingPoint": "0.0606387",
    "AcentricityFactor": "0.110697",
    "RadiusOfGyration": "1.569E-10",
    "SolubilityParameter": "20400",
    "DipoleMoment": "0",
    "VanDerWaalsVolume": "0.0312",
    "VanDerWaalsArea": "4.75366E+08",
    "HeatOfFormation": "1.169E+08",
    "GibbsEnergyOfFormation": "6.68E+07",
    "AbsEntropy": "237900",
    "HeatOfFusionAtMeltingPoint": "4393000",
    "MatthiasCopemanC1": "0.66599",
    "HeatOfCombustion": "-1.0769E+09",
    "SolidDensity": {
        "eqno": "2",
        "A": "20.411",
        "B": "-1.6913E-08",
        "Tmin": "157.45",
        "Tmax": "166.95"
    },
    "LiquidDensity": {
        "eqno": "105",
        "A": "1.7976",
        "B": "0.28757",
        "C": "552",
        "D": "0.32269",
        "Tmin": "161.11",
        "Tmax": "552"
    },
    "VaporPressure": {
        "eqno": "101",
        "A": "52.62041",
        "B": "-4546.02",
        "C": "-4.744246",
        "D": "4.881551E-06",
        "E": "2",
        "Tmin": "161.11",
        "Tmax": "552"
    },
    "HeatOfVaporization": {
        "eqno": "106",
        "A": "3.9758E+07",
        "B": "0.68679",
        "C": "0.18227",
        "D": "-1.7985",
        "E": "1.3658",
        "Tmin": "161.11",
        "Tmax": "552"
    },
    "SolidHeatCapacityCp": {
        "eqno": "100",
        "A": "-11237",
        "B": "1443.9",
        "C": "-14.995",
        "D": "0.077354",
        "E": "-0.00014378",
        "Tmin": "15",
        "Tmax": "160"
    },
    "LiquidHeatCapacityCp": {
        "eqno": "16",
        "A": "69032",
        "B": "671.75",
        "C": "2.3423",
        "D": "0.015972",
        "E": "-0.0000043479",
        "Tmin": "161.11",
        "Tmax": "552"
    },
    "IdealGasHeatCapacityCp": {
        "eqno": "16",
        "A": "26779",
        "B": "-222.87",
        "C": "10.557",
        "D": "0.00011062",
        "E": "-5.3772E-08",
        "Tmin": "100",
        "Tmax": "1500"
    },
    "SecondVirialCoefficient": {
        "eqno": "104",
        "A": "0.098838",
        "B": "-139",
        "C": "-11.954",
        "D": "1024.2",
        "E": "-2823.7",
        "Tmin": "276",
        "Tmax": "1932"
    },
    "LiquidViscosity": {
        "eqno": "101",
        "A": "-9.8702",
        "B": "691.26",
        "C": "-0.072299",
        "D": "1.6489E-07",
        "E": "2",
        "Tmin": "161.58",
        "Tmax": "441.6"
    },
    "VaporViscosity": {
        "eqno": "102",
        "A": "5.9681E-08",
        "B": "0.92304",
        "C": "48.01",
        "D": "-162.47",
        "Tmin": "161.11",
        "Tmax": "800"
    },
    "LiquidThermalConductivity": {
        "eqno": "16",
        "A": "0.12378",
        "B": "-150.01",
        "C": "-0.453",
        "D": "-0.0078739",
        "E": "-0.0000032002",
        "Tmin": "161.11",
        "Tmax": "319.37"
    },
    "VaporThermalConductivity": {
        "eqno": "102",
        "A": "0.00033762",
        "B": "0.73827",
        "C": "483.3",
        "D": "-4769.2",
        "Tmin": "161.11",
        "Tmax": "1000"
    },
    "SurfaceTension": {
        "eqno": "16",
        "A": "-0.015366",
        "B": "31.596",
        "C": "-2.7768",
        "D": "0.00031369",
        "E": "-0.0000054115",
        "Tmin": "161.11",
        "Tmax": "552"
    },
    "RPPHeatCapacityCp": {
        "eqno": "4",
        "A": "23177",
        "B": "96.491",
        "C": "-0.087795",
        "D": "0.000027305",
        "Tmin": "100",
        "Tmax": "1500"
    },
    "RelativeStaticPermittivity": {
        "eqno": "120",
        "A": "-1.955809",
        "B": "-1300",
        "C": "-7.8",
        "Tmin": "274.15",
        "Tmax": "444.15"
    },
    "AntoineVaporPressure": {
        "eqno": "10",
        "A": "21.694",
        "B": "3154.6",
        "C": "-9.3773",
        "Tmin": "336.03",
        "Tmax": "495.95"
    },
    "LiquidViscosityRPS": {
        "eqno": "13",
        "A": "-2.3517",
        "B": "-0.028388",
        "C": "0.000032128",
        "Tmin": "161.58",
        "Tmax": "441.6"
    },
    "COSTALDVolume": "0.16899",
    "DiameterLJ": "4.768909E-10",
    "EnergyLJ": "345.5016",
    "FullerVolume": "61.7",
    "MatthiasCopemanC2": "-0.05841",
    "Parachor": "0.0256",
    "SpecificGravity": "1.26931",
    "Charge": "0",
    "CostaldAcentricFactor": "0.1035",
    "WilsonVolume": "0.0606387",
    "UniquacR": "2.057",
    "UniquacQ": "1.65",
    "MatthiasCopemanC3": "-0.21329",
    "ChaoSeaderAcentricFactor": "0.107865",
    "ChaoSeaderSolubilityParameter": "20410.7",
    "ChaoSeaderLiquidVolume": "0.0606387",
    "UnifacVLE": {
        "group": "1"
    },
    "GCmethod": {
        "group": "1"
    },
    "Umr": {
        "group": "1"
    },
    "ModifiedUnifac": {
        "group": "1"
    },
    "CAS": "75-15-0",
    "Smiles": "S=C=S"
}