{
    "LibraryIndex": "918",
    "CompoundID": "Chlorine",
    "StructureFormula": "Cl2",
    "Family": "74",
    "CriticalTemperature": "417",
    "CriticalPressure": "7700000",
    "CriticalVolume": "0.124",
    "CriticalCompressibility": "0.275",
    "NormalBoilingPointTemperature": "239.12",
    "NormalMeltingPointTemperature": "172.12",
    "TriplePointTemperature": "172.12",
    "TriplePointPressure": "1366.04",
    "MolecularWeight": "70.906",
    "LiquidVolumeAtNormalBoilingPoint": "0.04536",
    "AcentricityFactor": "0.073",
    "RadiusOfGyration": "6.7E-11",
    "SolubilityParameter": "17360",
    "DipoleMoment": "0",
    "VanDerWaalsVolume": "0.0241",
    "VanDerWaalsArea": "3.81E+08",
    "HeatOfFormation": "0",
    "GibbsEnergyOfFormation": "0",
    "AbsEntropy": "222972",
    "HeatOfFusionAtMeltingPoint": "6406000",
    "MatthiasCopemanC1": "0.55192",
    "HeatOfCombustion": "0",
    "SolidDensity": {
        "eqno": "2",
        "A": "29.476",
        "B": "-4.0445E-09",
        "Tmin": "113.15",
        "Tmax": "122.65"
    },
    "LiquidDensity": {
        "eqno": "105",
        "A": "1.8293",
        "B": "0.25",
        "C": "417.16",
        "D": "0.26753",
        "Tmin": "172.12",
        "Tmax": "417.15"
    },
    "VaporPressure": {
        "eqno": "101",
        "A": "45.776",
        "B": "-3292.7",
        "C": "-3.7926",
        "D": "0.0000049863",
        "E": "2",
        "Tmin": "169.02",
        "Tmax": "417.15"
    },
    "HeatOfVaporization": {
        "eqno": "106",
        "A": "2.9601E+07",
        "B": "0.77334",
        "C": "-1.0279",
        "D": "0.93368",
        "E": "-0.2926",
        "Tmin": "172.12",
        "Tmax": "416.75"
    },
    "SolidHeatCapacityCp": {
        "eqno": "100",
        "A": "-22198",
        "B": "1876.1",
        "C": "-22.303",
        "D": "0.12569",
        "E": "-0.00025585",
        "Tmin": "19.81",
        "Tmax": "164.99"
    },
    "LiquidHeatCapacityCp": {
        "eqno": "16",
        "A": "66547",
        "B": "12488",
        "C": "-246.3",
        "D": "-2.7266",
        "E": "-0.021518",
        "Tmin": "172.12",
        "Tmax": "239.12"
    },
    "IdealGasHeatCapacityCp": {
        "eqno": "16",
        "A": "28958",
        "B": "-398.03",
        "C": "10.125",
        "D": "-0.0010681",
        "E": "3.8414E-07",
        "Tmin": "50",
        "Tmax": "1500"
    },
    "SecondVirialCoefficient": {
        "eqno": "104",
        "A": "0.069476",
        "B": "-70.479",
        "C": "-4.3328",
        "D": "1090.9",
        "E": "-2256.3",
        "Tmin": "208.6",
        "Tmax": "2000"
    },
    "LiquidViscosity": {
        "eqno": "101",
        "A": "-11.351",
        "B": "502.6",
        "C": "0.30506",
        "D": "-9.5237E-07",
        "E": "2",
        "Tmin": "172.12",
        "Tmax": "333.72"
    },
    "VaporViscosity": {
        "eqno": "102",
        "A": "2.5899E-07",
        "B": "0.74273",
        "C": "97.463",
        "D": "-22.488",
        "Tmin": "200",
        "Tmax": "1000"
    },
    "LiquidThermalConductivity": {
        "eqno": "16",
        "A": "-0.48743",
        "B": "13.229",
        "C": "-0.49371",
        "D": "0.00052989",
        "E": "-0.0000020491",
        "Tmin": "170",
        "Tmax": "410"
    },
    "VaporThermalConductivity": {
        "eqno": "102",
        "A": "0.00096588",
        "B": "0.54995",
        "C": "434.26",
        "D": "3605.9",
        "Tmin": "172.12",
        "Tmax": "1000"
    },
    "SurfaceTension": {
        "eqno": "16",
        "A": "-0.082803",
        "B": "-1.889",
        "C": "-1.8585",
        "D": "-0.0013422",
        "E": "-4.1394E-07",
        "Tmin": "172.12",
        "Tmax": "404.25"
    },
    "RPPHeatCapacityCp": {
        "eqno": "100",
        "A": "25409",
        "B": "44.655",
        "C": "-0.067331",
        "D": "0.000047334",
        "E": "-1.2685E-08",
        "Tmin": "50",
        "Tmax": "1000"
    },
    "AntoineVaporPressure": {
        "eqno": "10",
        "A": "21.434",
        "B": "2268.7",
        "C": "-9.9047",
        "Tmin": "255.79",
        "Tmax": "374.7"
    },
    "LiquidViscosityRPS": {
        "eqno": "13",
        "A": "-3.8294",
        "B": "-0.023375",
        "C": "0.000031235",
        "Tmin": "172.12",
        "Tmax": "333.72"
    },
    "COSTALDVolume": "0.13457",
    "DiameterLJ": "4.380459E-10",
    "EnergyLJ": "261.0039",
    "FullerVolume": "38.4",
    "MatthiasCopemanC2": "0.01934",
    "Parachor": "0.0185",
    "SpecificGravity": "1.41956",
    "Charge": "0",
    "CostaldAcentricFactor": "0.0821999",
    "WilsonVolume": "0.0455063",
    "UniquacR": "1.5887",
    "UniquacQ": "1.524",
    "MatthiasCopemanC3": "0.59414",
    "ChaoSeaderAcentricFactor": "0.0547",
    "ChaoSeaderSolubilityParameter": "20120",
    "ChaoSeaderLiquidVolume": "0.0455063",
    "Umr": {
        "group": "1"
    },
    "CAS": "7782-50-5",
    "Smiles": "ClCl"
}