{
    "LibraryIndex": "1521",
    "CompoundID": "Chloroform",
    "StructureFormula": "CHCl3",
    "Family": "65",
    "CriticalTemperature": "536.5",
    "CriticalPressure": "5500000",
    "CriticalVolume": "0.24",
    "CriticalCompressibility": "0.296",
    "NormalBoilingPointTemperature": "334.33",
    "NormalMeltingPointTemperature": "209.63",
    "TriplePointTemperature": "209.63",
    "TriplePointPressure": "68.1479",
    "MolecularWeight": "119.3776",
    "LiquidVolumeAtNormalBoilingPoint": "0.08068",
    "AcentricityFactor": "0.226",
    "RadiusOfGyration": "3.249E-10",
    "SolubilityParameter": "18920",
    "DipoleMoment": "3.37E-30",
    "VanDerWaalsVolume": "0.0435",
    "VanDerWaalsArea": "6.03E+08",
    "HeatOfFormation": "-1.029E+08",
    "GibbsEnergyOfFormation": "-7.01E+07",
    "AbsEntropy": "295600",
    "HeatOfFusionAtMeltingPoint": "9540000",
    "MatthiasCopemanC1": "0.80821",
    "HeatOfCombustion": "-3.8E+08",
    "SolidDensity": {
        "eqno": "2",
        "A": "15.968",
        "B": "-0.0028604",
        "Tmin": "173.15",
        "Tmax": "209.63"
    },
    "LiquidDensity": {
        "eqno": "105",
        "A": "0.53556",
        "B": "0.18404",
        "C": "536.5",
        "D": "0.18541",
        "Tmin": "209",
        "Tmax": "535.95"
    },
    "VaporPressure": {
        "eqno": "101",
        "A": "99.91512",
        "B": "-6781.559",
        "C": "-11.93873",
        "D": "0.0000115883",
        "E": "2",
        "Tmin": "207.15",
        "Tmax": "536.4"
    },
    "HeatOfVaporization": {
        "eqno": "106",
        "A": "5.1382E+07",
        "B": "0.7027",
        "C": "0.36748",
        "D": "-1.351",
        "E": "0.69236",
        "Tmin": "209.63",
        "Tmax": "536.4"
    },
    "SolidHeatCapacityCp": {
        "eqno": "1",
        "A": "92520",
        "Tmin": "283",
        "Tmax": "0"
    },
    "LiquidHeatCapacityCp": {
        "eqno": "16",
        "A": "93132",
        "B": "645.44",
        "C": "2.3739",
        "D": "0.024457",
        "E": "-0.000021097",
        "Tmin": "233.15",
        "Tmax": "366.48"
    },
    "IdealGasHeatCapacityCp": {
        "eqno": "16",
        "A": "36659",
        "B": "-308.1",
        "C": "11.299",
        "D": "0.00003137",
        "E": "-3.3538E-08",
        "Tmin": "100",
        "Tmax": "1500"
    },
    "SecondVirialCoefficient": {
        "eqno": "104",
        "A": "0.13849",
        "B": "-177.09",
        "C": "-16.939",
        "D": "-624.1",
        "E": "-99.389",
        "Tmin": "252",
        "Tmax": "2000"
    },
    "LiquidViscosity": {
        "eqno": "101",
        "A": "-20.923",
        "B": "1248.9",
        "C": "1.655",
        "D": "-0.0000024787",
        "E": "2",
        "Tmin": "209.63",
        "Tmax": "436"
    },
    "VaporViscosity": {
        "eqno": "102",
        "A": "1.8024E-07",
        "B": "0.76204",
        "C": "109.36",
        "D": "-1373.9",
        "Tmin": "209.63",
        "Tmax": "1000"
    },
    "LiquidThermalConductivity": {
        "eqno": "16",
        "A": "0.061417",
        "B": "-66.692",
        "C": "-1.6802",
        "D": "-0.001962",
        "E": "-0.0000044192",
        "Tmin": "209.63",
        "Tmax": "400"
    },
    "VaporThermalConductivity": {
        "eqno": "102",
        "A": "0.00041167",
        "B": "0.84476",
        "C": "1870.6",
        "D": "-7829.5",
        "Tmin": "209.63",
        "Tmax": "1000"
    },
    "SurfaceTension": {
        "eqno": "16",
        "A": "-0.012805",
        "B": "80.496",
        "C": "-3.4786",
        "D": "0.0022559",
        "E": "-0.0000078228",
        "Tmin": "209.63",
        "Tmax": "536.4"
    },
    "RPPHeatCapacityCp": {
        "eqno": "100",
        "A": "19863",
        "B": "217.99",
        "C": "-0.26149",
        "D": "0.0001544",
        "E": "-3.517E-08",
        "Tmin": "200",
        "Tmax": "1000"
    },
    "RelativeStaticPermittivity": {
        "eqno": "120",
        "A": "-5.214982",
        "B": "-2750",
        "C": "-16.5",
        "Tmin": "254.15",
        "Tmax": "424.15"
    },
    "AntoineVaporPressure": {
        "eqno": "10",
        "A": "21.534",
        "B": "3077.4",
        "C": "-26.818",
        "Tmin": "322.04",
        "Tmax": "480.55"
    },
    "LiquidViscosityRPS": {
        "eqno": "13",
        "A": "-0.33836",
        "B": "-0.03791",
        "C": "0.000046198",
        "Tmin": "209.63",
        "Tmax": "353.2"
    },
    "COSTALDVolume": "0.22663",
    "DiameterLJ": "5.31E-10",
    "EnergyLJ": "355",
    "FullerVolume": "81.21",
    "MatthiasCopemanC2": "-0.02138",
    "Parachor": "0.0326",
    "SpecificGravity": "1.49815",
    "Charge": "0",
    "CostaldAcentricFactor": "0.21796",
    "WilsonVolume": "0.0805048",
    "UniquacR": "2.7",
    "UniquacQ": "2.34",
    "UniquacQP": "2.34",
    "MatthiasCopemanC3": "0.0529",
    "ChaoSeaderAcentricFactor": "0.2059",
    "ChaoSeaderSolubilityParameter": "18919.5",
    "ChaoSeaderLiquidVolume": "0.0805048",
    "UnifacVLE": {
        "group": "1"
    },
    "UnifacLLE": {
        "group": "1"
    },
    "Asog": {
        "group": "1"
    },
    "GCmethod": {
        "group": "1"
    },
    "Umr": {
        "group": "1"
    },
    "ModifiedUnifac": {
        "group": "1"
    },
    "CAS": "67-66-3",
    "Smiles": "C([Cl])([Cl])[Cl]"
}