{
    "LibraryIndex": "153",
    "CompoundID": "Cis-decahydronaphthalene",
    "StructureFormula": "(CH2)4CHCH(CH2)4",
    "Family": "8",
    "CriticalTemperature": "702.25",
    "CriticalPressure": "3242400",
    "CriticalVolume": "0.48",
    "CriticalCompressibility": "0.267",
    "NormalBoilingPointTemperature": "468.965",
    "NormalMeltingPointTemperature": "230.17",
    "TriplePointTemperature": "230.2",
    "TriplePointPressure": "0.157166",
    "MolecularWeight": "138.2499",
    "LiquidVolumeAtNormalBoilingPoint": "0.154615",
    "AcentricityFactor": "0.294204",
    "RadiusOfGyration": "4.206E-10",
    "SolubilityParameter": "17625.3",
    "DipoleMoment": "0",
    "VanDerWaalsVolume": "0.09426",
    "VanDerWaalsArea": "1.137E+09",
    "HeatOfFormation": "-1.6924E+08",
    "GibbsEnergyOfFormation": "8.552E+07",
    "AbsEntropy": "377730",
    "HeatOfFusionAtMeltingPoint": "9489000",
    "MatthiasCopemanC1": "0.93532",
    "HeatOfCombustion": "-5.89213E+09",
    "SolidDensity": {
        "eqno": "2",
        "A": "7.97",
        "B": "-8.742E-09",
        "Tmin": "230.2",
        "Tmax": "239.7"
    },
    "LiquidDensity": {
        "eqno": "105",
        "A": "0.5563",
        "B": "0.26613",
        "C": "702.25",
        "D": "0.2872",
        "Tmin": "230.2",
        "Tmax": "702.25"
    },
    "VaporPressure": {
        "eqno": "101",
        "A": "133.51",
        "B": "-10671",
        "C": "-16.446",
        "D": "0.0000090618",
        "E": "2",
        "Tmin": "230.2",
        "Tmax": "702.25"
    },
    "HeatOfVaporization": {
        "eqno": "106",
        "A": "7.893812E+07",
        "B": "1.120046",
        "C": "-0.590284",
        "D": "-0.648808",
        "E": "0.601197",
        "Tmin": "230.2",
        "Tmax": "702.25"
    },
    "SolidHeatCapacityCp": {
        "eqno": "100",
        "A": "5463.3",
        "B": "610.38",
        "C": "3.7884",
        "D": "-0.041328",
        "E": "0.00011576",
        "Tmin": "25",
        "Tmax": "220"
    },
    "LiquidHeatCapacityCp": {
        "eqno": "16",
        "A": "22875",
        "B": "183.22",
        "C": "9.7191",
        "D": "0.0080113",
        "E": "-0.0000053261",
        "Tmin": "230.2",
        "Tmax": "600"
    },
    "IdealGasHeatCapacityCp": {
        "eqno": "16",
        "A": "90923",
        "B": "-788.66",
        "C": "14.021",
        "D": "-0.00046171",
        "E": "0.0000001235",
        "Tmin": "200",
        "Tmax": "1500"
    },
    "SecondVirialCoefficient": {
        "eqno": "104",
        "A": "0.037954",
        "B": "-145.9",
        "C": "-175.13",
        "D": "-52628",
        "E": "40101",
        "Tmin": "293.15",
        "Tmax": "693.15"
    },
    "LiquidViscosity": {
        "eqno": "101",
        "A": "-102.87",
        "B": "5387.9",
        "C": "14.086",
        "D": "-0.000014127",
        "E": "2",
        "Tmin": "243.15",
        "Tmax": "561.8"
    },
    "VaporViscosity": {
        "eqno": "102",
        "A": "7.2745E-07",
        "B": "0.51364",
        "C": "404.18",
        "D": "49.274",
        "Tmin": "468.96",
        "Tmax": "1000"
    },
    "LiquidThermalConductivity": {
        "eqno": "16",
        "A": "0.087597",
        "B": "-101",
        "C": "-1.0253",
        "D": "-0.0090174",
        "E": "0.0000045064",
        "Tmin": "293.15",
        "Tmax": "468.96"
    },
    "VaporThermalConductivity": {
        "eqno": "102",
        "A": "0.0000017593",
        "B": "1.7742",
        "C": "317.62",
        "D": "37605",
        "Tmin": "230.2",
        "Tmax": "1000"
    },
    "SurfaceTension": {
        "eqno": "16",
        "A": "-0.0073102",
        "B": "159.63",
        "C": "-4.1152",
        "D": "0.0030369",
        "E": "-0.0000064896",
        "Tmin": "230.2",
        "Tmax": "702.25"
    },
    "RPPHeatCapacityCp": {
        "eqno": "100",
        "A": "-45272",
        "B": "665.72",
        "C": "0.42113",
        "D": "-0.00097745",
        "E": "4.2304E-07",
        "Tmin": "298",
        "Tmax": "1000"
    },
    "AntoineVaporPressure": {
        "eqno": "10",
        "A": "20.082",
        "B": "3127.3",
        "C": "-102.92",
        "Tmin": "424.98",
        "Tmax": "627.72"
    },
    "LiquidViscosityRPS": {
        "eqno": "13",
        "A": "6.7247",
        "B": "-0.061114",
        "C": "0.000064934",
        "Tmin": "243.15",
        "Tmax": "468.96"
    },
    "COSTALDVolume": "0.52096",
    "DiameterLJ": "7.12599E-10",
    "EnergyLJ": "395.2259",
    "RacketParameter": "0.264744",
    "FullerVolume": "200.58",
    "MatthiasCopemanC2": "-0.23541",
    "Parachor": "0.0321597",
    "SpecificGravity": "0.90094",
    "Charge": "0",
    "CostaldAcentricFactor": "0.294204",
    "WilsonVolume": "0.154615",
    "UniquacR": "6.289",
    "UniquacQ": "4.776",
    "ApiSrkS2": "-0.00602",
    "MatthiasCopemanC3": "0.63311",
    "ChaoSeaderAcentricFactor": "0.294204",
    "ChaoSeaderSolubilityParameter": "17625.3",
    "ChaoSeaderLiquidVolume": "0.154615",
    "UnifacVLE": {
        "group": "2"
    },
    "UnifacLLE": {
        "group": "2"
    },
    "Asog": {
        "group": "2"
    },
    "GCmethod": {
        "group": "2"
    },
    "Umr": {
        "group": "2"
    },
    "ModifiedUnifac": {
        "group": "2"
    },
    "CAS": "493-01-6",
    "Smiles": "C1C[C@]2(CCCC[C@]2(CC1)([H]))([H])"
}