{
    "LibraryIndex": "146",
    "CompoundID": "Cis-1,4-dimethylcyclohexane",
    "StructureFormula": "-CH(CH3)CH2CH2CH(CH3)(CH2)2-",
    "Family": "7",
    "CriticalTemperature": "598.15",
    "CriticalPressure": "2938430",
    "CriticalVolume": "0.46",
    "CriticalCompressibility": "0.272",
    "NormalBoilingPointTemperature": "397.48",
    "NormalMeltingPointTemperature": "185.744",
    "TriplePointTemperature": "185.72",
    "TriplePointPressure": "0.0704204",
    "MolecularWeight": "112.2126",
    "LiquidVolumeAtNormalBoilingPoint": "0.144106",
    "AcentricityFactor": "0.2348",
    "RadiusOfGyration": "3.905E-10",
    "SolubilityParameter": "15980",
    "DipoleMoment": "0",
    "VanDerWaalsVolume": "0.08068",
    "VanDerWaalsArea": "1.021E+09",
    "HeatOfFormation": "-1.76648E+08",
    "GibbsEnergyOfFormation": "3.79489E+07",
    "AbsEntropy": "370451",
    "HeatOfFusionAtMeltingPoint": "9307730",
    "MatthiasCopemanC1": "0.76732",
    "HeatOfCombustion": "-4.86704E+09",
    "SolidDensity": {
        "eqno": "2",
        "A": "9.7979",
        "B": "-0.0058522",
        "C": "0",
        "D": "0",
        "E": "0",
        "Tmin": "74.29",
        "Tmax": "185.72"
    },
    "LiquidDensity": {
        "eqno": "105",
        "A": "0.53336",
        "B": "0.24533",
        "C": "598.15",
        "D": "0.2771",
        "Tmin": "185.72",
        "Tmax": "576.44"
    },
    "VaporPressure": {
        "eqno": "101",
        "A": "79.163",
        "B": "-7004.6",
        "C": "-8.4779",
        "D": "0.0000046053",
        "E": "2",
        "Tmin": "185.72",
        "Tmax": "598.15"
    },
    "HeatOfVaporization": {
        "eqno": "106",
        "A": "7.1514E+07",
        "B": "2.3724",
        "C": "-5.2021",
        "D": "5.4751",
        "E": "-2.1521",
        "Tmin": "185.72",
        "Tmax": "576.44"
    },
    "SolidHeatCapacityCp": {
        "eqno": "100",
        "A": "-15617",
        "B": "1688.8",
        "C": "-13.402",
        "D": "0.071342",
        "E": "-0.00014259",
        "Tmin": "19.17",
        "Tmax": "173.61"
    },
    "LiquidHeatCapacityCp": {
        "eqno": "16",
        "A": "110770",
        "B": "140.07",
        "C": "8.7617",
        "D": "0.0091373",
        "E": "-0.0000048302",
        "Tmin": "185.72",
        "Tmax": "397.47"
    },
    "IdealGasHeatCapacityCp": {
        "eqno": "16",
        "A": "101700",
        "B": "-844.25",
        "C": "13.931",
        "D": "-0.00056374",
        "E": "1.5762E-07",
        "Tmin": "200",
        "Tmax": "1500"
    },
    "SecondVirialCoefficient": {
        "eqno": "104",
        "A": "0.23973",
        "B": "-318.64",
        "C": "-42.246",
        "D": "-26.054",
        "E": "-2319.1",
        "Tmin": "299.08",
        "Tmax": "2000"
    },
    "LiquidViscosity": {
        "eqno": "101",
        "A": "-20.704",
        "B": "1391.4",
        "C": "1.6378",
        "D": "-0.0000047953",
        "E": "2",
        "Tmin": "185.72",
        "Tmax": "472"
    },
    "VaporViscosity": {
        "eqno": "102",
        "A": "0.0000024207",
        "B": "0.36412",
        "C": "666.44",
        "D": "4231",
        "Tmin": "397.47",
        "Tmax": "1000"
    },
    "LiquidThermalConductivity": {
        "eqno": "16",
        "A": "-0.063527",
        "B": "3.3026",
        "C": "-1.4941",
        "D": "-0.0004362",
        "E": "-0.0000011663",
        "Tmin": "185.72",
        "Tmax": "397.47"
    },
    "VaporThermalConductivity": {
        "eqno": "102",
        "A": "0.016747",
        "B": "0.34072",
        "C": "-1.7965",
        "D": "898230",
        "Tmin": "185.72",
        "Tmax": "1000"
    },
    "SurfaceTension": {
        "eqno": "16",
        "A": "-0.013074",
        "B": "24.299",
        "C": "-3.0007",
        "D": "-0.00018331",
        "E": "-0.0000036266",
        "Tmin": "185.72",
        "Tmax": "576.44"
    },
    "RPPHeatCapacityCp": {
        "eqno": "4",
        "A": "-40884",
        "B": "783.56",
        "C": "-0.38232",
        "D": "0.000063738",
        "Tmin": "200",
        "Tmax": "1500"
    },
    "AntoineVaporPressure": {
        "eqno": "10",
        "A": "20.447",
        "B": "2982.9",
        "C": "-63.108",
        "Tmin": "359.37",
        "Tmax": "533.03"
    },
    "LiquidViscosityRPS": {
        "eqno": "12",
        "A": "-2.4904",
        "B": "-0.015056",
        "Tmin": "185.72",
        "Tmax": "397.47"
    },
    "COSTALDVolume": "0.438832",
    "DiameterLJ": "6.87092E-10",
    "EnergyLJ": "359.8914",
    "RacketParameter": "0.258525",
    "FullerVolume": "164.16",
    "MatthiasCopemanC2": "0.50855",
    "Parachor": "0.0569489",
    "SpecificGravity": "0.787298",
    "Charge": "0",
    "CostaldAcentricFactor": "0.2348",
    "WilsonVolume": "0.144106",
    "UniquacR": "5.3936",
    "UniquacQ": "4.312",
    "ApiSrkS2": "0.007723",
    "MatthiasCopemanC3": "-0.55767",
    "ChaoSeaderAcentricFactor": "0.2348",
    "ChaoSeaderSolubilityParameter": "15980",
    "ChaoSeaderLiquidVolume": "0.144106",
    "UnifacVLE": {
        "group": "2"
    },
    "UnifacLLE": {
        "group": "2"
    },
    "Asog": {
        "group": "2"
    },
    "GCmethod": {
        "group": "2"
    },
    "Umr": {
        "group": "2"
    },
    "ModifiedUnifac": {
        "group": "2"
    },
    "CAS": "624-29-3",
    "Smiles": "C1[C@@](C)([H])(CC[C@]([H])(C)(C1))"
}