{
    "LibraryIndex": "111",
    "CompoundID": "Cis-1,3-dimethylcyclopentane",
    "StructureFormula": "-CH2CH(CH3)CH2CH(CH3)CH2-",
    "Family": "3",
    "CriticalTemperature": "551",
    "CriticalPressure": "3400000",
    "CriticalVolume": "0.3633",
    "CriticalCompressibility": "0.277",
    "NormalBoilingPointTemperature": "364.71",
    "NormalMeltingPointTemperature": "139.45",
    "TriplePointTemperature": "139.45",
    "TriplePointPressure": "0.000172698",
    "MolecularWeight": "98.18607",
    "LiquidVolumeAtNormalBoilingPoint": "0.13191",
    "AcentricityFactor": "0.276",
    "RadiusOfGyration": "3.633E-10",
    "SolubilityParameter": "15490",
    "DipoleMoment": "0",
    "VanDerWaalsVolume": "0.07045",
    "VanDerWaalsArea": "8.86E+08",
    "HeatOfFormation": "-1.3585E+08",
    "GibbsEnergyOfFormation": "3.9204E+07",
    "AbsEntropy": "366810",
    "HeatOfFusionAtMeltingPoint": "7397000",
    "HeatOfCombustion": "-4.2771E+09",
    "SolidDensity": {
        "eqno": "2",
        "A": "11.282",
        "B": "-0.0089936",
        "C": "0",
        "D": "0",
        "E": "0",
        "Tmin": "55.78",
        "Tmax": "139.45"
    },
    "LiquidDensity": {
        "eqno": "105",
        "A": "0.77224",
        "B": "0.27858",
        "C": "551",
        "D": "0.31293",
        "Tmin": "139.45",
        "Tmax": "551"
    },
    "VaporPressure": {
        "eqno": "101",
        "A": "59.262",
        "B": "-5561.3",
        "C": "-5.5932",
        "D": "0.0000039124",
        "E": "2",
        "Tmin": "139.45",
        "Tmax": "551"
    },
    "HeatOfVaporization": {
        "eqno": "106",
        "A": "5.964754E+07",
        "B": "1.992198",
        "C": "-3.906039",
        "D": "3.442342",
        "E": "-1.064932",
        "Tmin": "139.45",
        "Tmax": "551"
    },
    "SolidHeatCapacityCp": {
        "eqno": "1",
        "A": "182070",
        "Tmin": "0",
        "Tmax": "551"
    },
    "LiquidHeatCapacityCp": {
        "eqno": "16",
        "A": "65786",
        "B": "-81.345",
        "C": "11.138",
        "D": "0.0032931",
        "E": "-0.0000013405",
        "Tmin": "210.93",
        "Tmax": "363.92"
    },
    "IdealGasHeatCapacityCp": {
        "eqno": "16",
        "A": "86318",
        "B": "-831.43",
        "C": "13.758",
        "D": "-0.00059782",
        "E": "1.8276E-07",
        "Tmin": "200",
        "Tmax": "1500"
    },
    "SecondVirialCoefficient": {
        "eqno": "104",
        "A": "0.21788",
        "B": "-188.03",
        "C": "-39.482",
        "D": "-9836.4",
        "E": "17510",
        "Tmin": "275.5",
        "Tmax": "2000"
    },
    "LiquidViscosity": {
        "eqno": "101",
        "A": "-11.311",
        "B": "1000.6",
        "C": "0.063555",
        "D": "-2.0388E-07",
        "E": "2",
        "Tmin": "139.45",
        "Tmax": "508.65"
    },
    "VaporViscosity": {
        "eqno": "102",
        "A": "4.8359E-07",
        "B": "0.57388",
        "C": "271.6",
        "D": "-5017.7",
        "Tmin": "139.45",
        "Tmax": "1000"
    },
    "LiquidThermalConductivity": {
        "eqno": "16",
        "A": "-0.041732",
        "B": "3.5995",
        "C": "-1.581",
        "D": "-0.00048911",
        "E": "-0.0000016476",
        "Tmin": "139.45",
        "Tmax": "363.92"
    },
    "VaporThermalConductivity": {
        "eqno": "102",
        "A": "0.0021721",
        "B": "0.62882",
        "C": "203.61",
        "D": "446440",
        "Tmin": "139.45",
        "Tmax": "1000"
    },
    "SurfaceTension": {
        "eqno": "16",
        "A": "-0.0095794",
        "B": "29.018",
        "C": "-3.1051",
        "D": "-0.000049483",
        "E": "-0.00000529",
        "Tmin": "139.45",
        "Tmax": "551"
    },
    "RPPHeatCapacityCp": {
        "eqno": "100",
        "A": "-20969",
        "B": "503.34",
        "C": "0.22474",
        "D": "-0.00062957",
        "E": "2.7945E-07",
        "Tmin": "298",
        "Tmax": "1000"
    },
    "AntoineVaporPressure": {
        "eqno": "10",
        "A": "21.065",
        "B": "3078.8",
        "C": "-41.512",
        "Tmin": "332.1",
        "Tmax": "486.02"
    },
    "LiquidViscosityRPS": {
        "eqno": "12",
        "A": "-2.0328",
        "B": "-0.018355",
        "Tmin": "139.45",
        "Tmax": "363.92"
    },
    "COSTALDVolume": "0.379444",
    "DiameterLJ": "6.213806E-10",
    "EnergyLJ": "353.9908",
    "RacketParameter": "0.277",
    "FullerVolume": "143.64",
    "Parachor": "0.0501818",
    "SpecificGravity": "0.750406",
    "Charge": "0",
    "CostaldAcentricFactor": "0.276",
    "WilsonVolume": "0.13191",
    "UniquacR": "4.7192",
    "UniquacQ": "3.772",
    "ApiSrkS2": "-0.001337",
    "ChaoSeaderAcentricFactor": "0.276",
    "ChaoSeaderSolubilityParameter": "15490",
    "ChaoSeaderLiquidVolume": "0.13191",
    "UnifacVLE": {
        "group": "2"
    },
    "UnifacLLE": {
        "group": "2"
    },
    "Asog": {
        "group": "2"
    },
    "GCmethod": {
        "group": "2"
    },
    "Umr": {
        "group": "2"
    },
    "ModifiedUnifac": {
        "group": "2"
    },
    "CAS": "2532-58-3",
    "Smiles": "C1[C@@](C)([H])(C[C@]([H])(C)(C1))"
}