{
    "LibraryIndex": "1472",
    "CompoundID": "Cumene hydroperoxide",
    "StructureFormula": "(C6H5)C(CH3)2OOH",
    "Family": "64",
    "CriticalTemperature": "605",
    "CriticalPressure": "3340000",
    "CriticalVolume": "0.463",
    "CriticalCompressibility": "0.278",
    "NormalBoilingPointTemperature": "442.7",
    "NormalMeltingPointTemperature": "264.26",
    "TriplePointTemperature": "264.26",
    "TriplePointPressure": "0.00236574",
    "MolecularWeight": "152.1904",
    "LiquidVolumeAtNormalBoilingPoint": "0.145892",
    "AcentricityFactor": "0.995",
    "RadiusOfGyration": "4.532E-10",
    "SolubilityParameter": "21500",
    "DipoleMoment": "5.95412E-30",
    "VanDerWaalsVolume": "0.08825",
    "VanDerWaalsArea": "1.162E+09",
    "HeatOfFormation": "-7.84E+07",
    "GibbsEnergyOfFormation": "9.6E+07",
    "AbsEntropy": "455000",
    "HeatOfFusionAtMeltingPoint": "0",
    "HeatOfCombustion": "-4.8444E+09",
    "SolidDensity": {
        "eqno": "2",
        "A": "8.9801",
        "B": "-0.0037758",
        "C": "0",
        "D": "0",
        "E": "0",
        "Tmin": "105.7",
        "Tmax": "264.26"
    },
    "LiquidDensity": {
        "eqno": "105",
        "A": "0.6643",
        "B": "0.27801",
        "C": "605",
        "D": "0.28637",
        "Tmin": "264.26",
        "Tmax": "605"
    },
    "VaporPressure": {
        "eqno": "101",
        "A": "156.523",
        "B": "-16668.56",
        "C": "-17.98221",
        "D": "0.0000113017",
        "E": "2",
        "Tmin": "264.26",
        "Tmax": "494.28"
    },
    "HeatOfVaporization": {
        "eqno": "106",
        "A": "7.2836E+07",
        "B": "0.18056",
        "C": "-0.22381",
        "D": "-0.21673",
        "E": "0.35898",
        "Tmin": "298.15",
        "Tmax": "307.65"
    },
    "SolidHeatCapacityCp": {
        "eqno": "100",
        "A": "7404",
        "B": "942.63",
        "C": "-1.8511",
        "D": "0.0047682",
        "E": "-0.0000054326",
        "Tmin": "50",
        "Tmax": "264.26"
    },
    "LiquidHeatCapacityCp": {
        "eqno": "16",
        "A": "83403",
        "B": "-35.074",
        "C": "9.3262",
        "D": "0.010979",
        "E": "-0.00001071",
        "Tmin": "264.26",
        "Tmax": "442.7"
    },
    "IdealGasHeatCapacityCp": {
        "eqno": "16",
        "A": "70090",
        "B": "-408.89",
        "C": "12.927",
        "D": "0.00036839",
        "E": "-1.5886E-07",
        "Tmin": "273",
        "Tmax": "1200"
    },
    "VaporViscosity": {
        "eqno": "102",
        "A": "1.9678E-07",
        "B": "0.71936",
        "C": "203.36",
        "D": "-7639",
        "Tmin": "264.26",
        "Tmax": "1000"
    },
    "LiquidThermalConductivity": {
        "eqno": "16",
        "A": "-0.022189",
        "B": "-77.144",
        "C": "-1.2225",
        "D": "-0.0023354",
        "E": "4.0588E-08",
        "Tmin": "264.26",
        "Tmax": "442.7"
    },
    "VaporThermalConductivity": {
        "eqno": "102",
        "A": "0.00018194",
        "B": "0.94296",
        "C": "592.69",
        "D": "22533",
        "Tmin": "264.26",
        "Tmax": "1000"
    },
    "SurfaceTension": {
        "eqno": "16",
        "A": "-0.045171",
        "B": "4.6642",
        "C": "-2.3249",
        "D": "-0.0010841",
        "E": "-3.4989E-07",
        "Tmin": "264.26",
        "Tmax": "442.7"
    },
    "RPPHeatCapacityCp": {
        "eqno": "4",
        "A": "-20463",
        "B": "844.33",
        "C": "-0.56023",
        "D": "0.00014275",
        "Tmin": "273",
        "Tmax": "1200"
    },
    "AntoineVaporPressure": {
        "eqno": "10",
        "A": "33.2",
        "B": "8625.8",
        "C": "-44.733",
        "Tmin": "367.57",
        "Tmax": "494.28"
    },
    "COSTALDVolume": "0.484118",
    "DiameterLJ": "6.707874E-10",
    "EnergyLJ": "393.7584",
    "RacketParameter": "0.278",
    "Parachor": "0.0577525",
    "SpecificGravity": "1.053372",
    "Charge": "0",
    "CostaldAcentricFactor": "0.995",
    "WilsonVolume": "0.145892",
    "UniquacR": "5.817402",
    "UniquacQ": "4.648",
    "ChaoSeaderAcentricFactor": "0.995",
    "ChaoSeaderSolubilityParameter": "21500",
    "ChaoSeaderLiquidVolume": "0.145892",
    "Asog": {
        "group": "1"
    },
    "CAS": "80-15-9",
    "Smiles": "c1ccccc1(C(C)(C)OO)"
}