{
    "LibraryIndex": "270",
    "CompoundID": "Cyclohexene",
    "StructureFormula": "-CH2CHCHCH2CH2CH2-",
    "Family": "13",
    "CriticalTemperature": "560.42",
    "CriticalPressure": "4350000",
    "CriticalVolume": "0.291",
    "CriticalCompressibility": "0.272",
    "NormalBoilingPointTemperature": "356.12",
    "NormalMeltingPointTemperature": "169.67",
    "TriplePointTemperature": "169.67",
    "TriplePointPressure": "0.103772",
    "MolecularWeight": "82.1436",
    "LiquidVolumeAtNormalBoilingPoint": "0.101877",
    "AcentricityFactor": "0.212302",
    "RadiusOfGyration": "3.157E-10",
    "SolubilityParameter": "17420",
    "DipoleMoment": "1.83E-30",
    "VanDerWaalsVolume": "0.05672",
    "VanDerWaalsArea": "6.99E+08",
    "HeatOfFormation": "-4520000",
    "GibbsEnergyOfFormation": "1.077E+08",
    "AbsEntropy": "310750",
    "HeatOfFusionAtMeltingPoint": "3290000",
    "MatthiasCopemanC1": "0.815753",
    "HeatOfCombustion": "-3.532E+09",
    "SolidDensity": {
        "eqno": "2",
        "A": "14.172",
        "B": "-0.0093983",
        "C": "0",
        "D": "0",
        "E": "0",
        "Tmin": "67.87",
        "Tmax": "169.67"
    },
    "LiquidDensity": {
        "eqno": "105",
        "A": "0.807",
        "B": "0.25253",
        "C": "560.42",
        "D": "0.26738",
        "Tmin": "169.67",
        "Tmax": "560.4"
    },
    "VaporPressure": {
        "eqno": "101",
        "A": "82.052",
        "B": "-6388.7",
        "C": "-9.1035",
        "D": "0.0000071317",
        "E": "2",
        "Tmin": "169.67",
        "Tmax": "560.4"
    },
    "HeatOfVaporization": {
        "eqno": "106",
        "A": "5.794402E+07",
        "B": "1.587579",
        "C": "-2.225474",
        "D": "1.109627",
        "E": "0.041589",
        "Tmin": "169.67",
        "Tmax": "560.4"
    },
    "SolidHeatCapacityCp": {
        "eqno": "100",
        "A": "-106910",
        "B": "3261.1",
        "C": "-17.561",
        "D": "0.022428",
        "E": "0.000070624",
        "Tmin": "110",
        "Tmax": "169.66"
    },
    "LiquidHeatCapacityCp": {
        "eqno": "16",
        "A": "97738",
        "B": "2.3363",
        "C": "7.7626",
        "D": "0.013772",
        "E": "-0.000011653",
        "Tmin": "169.67",
        "Tmax": "356.12"
    },
    "IdealGasHeatCapacityCp": {
        "eqno": "16",
        "A": "48919",
        "B": "-644.33",
        "C": "13.16",
        "D": "-0.0002758",
        "E": "9.0717E-08",
        "Tmin": "150",
        "Tmax": "1500"
    },
    "SecondVirialCoefficient": {
        "eqno": "104",
        "A": "0.17779",
        "B": "-223.3",
        "C": "-26.025",
        "D": "400.34",
        "E": "-7027.1",
        "Tmin": "280.2",
        "Tmax": "1500"
    },
    "LiquidViscosity": {
        "eqno": "101",
        "A": "-11.901",
        "B": "1159.3",
        "C": "0.11228",
        "D": "-1.9651E-07",
        "E": "2",
        "Tmin": "200",
        "Tmax": "448.336"
    },
    "VaporViscosity": {
        "eqno": "102",
        "A": "0.0000013322",
        "B": "0.45371",
        "C": "444.45",
        "D": "117.38",
        "Tmin": "169.67",
        "Tmax": "1000"
    },
    "LiquidThermalConductivity": {
        "eqno": "16",
        "A": "0.11174",
        "B": "816.81",
        "C": "-14.373",
        "D": "0.055987",
        "E": "-0.00010104",
        "Tmin": "169.67",
        "Tmax": "383.15"
    },
    "VaporThermalConductivity": {
        "eqno": "102",
        "A": "0.000094336",
        "B": "1.0783",
        "C": "568.3",
        "D": "34471",
        "Tmin": "169.67",
        "Tmax": "1000"
    },
    "SurfaceTension": {
        "eqno": "16",
        "A": "-0.011245",
        "B": "31.113",
        "C": "-2.988",
        "D": "0.00029997",
        "E": "-0.0000055654",
        "Tmin": "169.67",
        "Tmax": "560.4"
    },
    "RPPHeatCapacityCp": {
        "eqno": "4",
        "A": "-29684",
        "B": "538",
        "C": "-0.28796",
        "D": "0.000056637",
        "Tmin": "150",
        "Tmax": "1500"
    },
    "AntoineVaporPressure": {
        "eqno": "10",
        "A": "20.91",
        "B": "2943.1",
        "C": "-42.47",
        "Tmin": "336.35",
        "Tmax": "500"
    },
    "LiquidViscosityRPS": {
        "eqno": "12",
        "A": "-3.1149",
        "B": "-0.014108",
        "Tmin": "200",
        "Tmax": "373.15"
    },
    "COSTALDVolume": "0.302527",
    "DiameterLJ": "5.898296E-10",
    "EnergyLJ": "337.1902",
    "RacketParameter": "0.272",
    "FullerVolume": "118.5",
    "MatthiasCopemanC2": "0",
    "Parachor": "0.0407571",
    "SpecificGravity": "0.816732",
    "Charge": "0",
    "CostaldAcentricFactor": "0.212302",
    "WilsonVolume": "0.101877",
    "UniquacR": "3.8143",
    "UniquacQ": "3.027",
    "MatthiasCopemanC3": "0",
    "ChaoSeaderAcentricFactor": "0.212302",
    "ChaoSeaderSolubilityParameter": "17420",
    "ChaoSeaderLiquidVolume": "0.101877",
    "UnifacVLE": {
        "group": "1"
    },
    "UnifacLLE": {
        "group": "1"
    },
    "Asog": {
        "group": "1"
    },
    "GCmethod": {
        "group": "2"
    },
    "Umr": {
        "group": "1"
    },
    "ModifiedUnifac": {
        "group": "4"
    },
    "CAS": "110-83-8",
    "Smiles": "C1=CCCCC1"
}