{
    "LibraryIndex": "1151",
    "CompoundID": "Cyclohexanol",
    "StructureFormula": "-CH(OH)(CH2)4CH2-",
    "Family": "47",
    "CriticalTemperature": "650.1",
    "CriticalPressure": "4260000",
    "CriticalVolume": "0.322",
    "CriticalCompressibility": "0.254",
    "NormalBoilingPointTemperature": "434",
    "NormalMeltingPointTemperature": "296.6",
    "TriplePointTemperature": "296.6",
    "TriplePointPressure": "76.4997",
    "MolecularWeight": "100.1589",
    "LiquidVolumeAtNormalBoilingPoint": "0.105751",
    "AcentricityFactor": "0.369047",
    "RadiusOfGyration": "3.601E-10",
    "SolubilityParameter": "23730",
    "DipoleMoment": "6.2E-30",
    "VanDerWaalsVolume": "0.06484",
    "VanDerWaalsArea": "8.78E+08",
    "HeatOfFormation": "-2.862E+08",
    "GibbsEnergyOfFormation": "-1.095E+08",
    "AbsEntropy": "327700",
    "HeatOfFusionAtMeltingPoint": "1783000",
    "MatthiasCopemanC1": "0.70742",
    "HeatOfCombustion": "-3.4639E+09",
    "SolidDensity": {
        "eqno": "2",
        "A": "11.987",
        "B": "-0.004344",
        "Tmin": "118.64",
        "Tmax": "296.6"
    },
    "LiquidDensity": {
        "eqno": "105",
        "A": "0.90826",
        "B": "0.27716",
        "C": "650.1",
        "D": "0.30685",
        "Tmin": "296.6",
        "Tmax": "631.49"
    },
    "VaporPressure": {
        "eqno": "101",
        "A": "-31.63718",
        "B": "-3989.985",
        "C": "9.013268",
        "D": "-0.0000126698",
        "E": "2",
        "Tmin": "296.6",
        "Tmax": "650.1"
    },
    "HeatOfVaporization": {
        "eqno": "106",
        "A": "7.128838E+07",
        "B": "0.392061",
        "C": "-2.168338",
        "D": "5.552036",
        "E": "-3.376933",
        "Tmin": "296.6",
        "Tmax": "631.49"
    },
    "SolidHeatCapacityCp": {
        "eqno": "100",
        "A": "-7568.9",
        "B": "1079.5",
        "C": "-5.8888",
        "D": "0.020493",
        "E": "-0.000021735",
        "Tmin": "30",
        "Tmax": "260"
    },
    "LiquidHeatCapacityCp": {
        "eqno": "16",
        "A": "-69485",
        "B": "774.7",
        "C": "4.4167",
        "D": "0.025384",
        "E": "-0.000022994",
        "Tmin": "296.6",
        "Tmax": "434"
    },
    "IdealGasHeatCapacityCp": {
        "eqno": "16",
        "A": "82477",
        "B": "-807.95",
        "C": "13.526",
        "D": "-0.00028702",
        "E": "2.5016E-08",
        "Tmin": "200",
        "Tmax": "1500"
    },
    "SecondVirialCoefficient": {
        "eqno": "104",
        "A": "0.21842",
        "B": "-283.51",
        "C": "-60.937",
        "D": "-15490",
        "E": "3379.6",
        "Tmin": "325.05",
        "Tmax": "1992"
    },
    "LiquidViscosity": {
        "eqno": "101",
        "A": "-437.51",
        "B": "22529",
        "C": "63.787",
        "D": "-0.000049001",
        "E": "2",
        "Tmin": "296.6",
        "Tmax": "520.08"
    },
    "VaporViscosity": {
        "eqno": "102",
        "A": "8.1528E-08",
        "B": "0.83387",
        "C": "90.96",
        "D": "4936.6",
        "Tmin": "296.6",
        "Tmax": "1000"
    },
    "LiquidThermalConductivity": {
        "eqno": "16",
        "A": "0.075187",
        "B": "-249.81",
        "C": "-0.16784",
        "D": "-0.0068233",
        "E": "0.0000026882",
        "Tmin": "293.15",
        "Tmax": "563.15"
    },
    "VaporThermalConductivity": {
        "eqno": "102",
        "A": "0.0030349",
        "B": "0.6097",
        "C": "669.35",
        "D": "478820",
        "Tmin": "296.6",
        "Tmax": "1000"
    },
    "SurfaceTension": {
        "eqno": "16",
        "A": "-0.026687",
        "B": "-3.1724",
        "C": "-2.4129",
        "D": "-0.00081796",
        "E": "-0.0000016257",
        "Tmin": "289.35",
        "Tmax": "631.49"
    },
    "RPPHeatCapacityCp": {
        "eqno": "4",
        "A": "-55496.57",
        "B": "720.9032",
        "C": "-0.408358",
        "D": "0.0000822993",
        "Tmin": "200",
        "Tmax": "1200"
    },
    "AntoineVaporPressure": {
        "eqno": "10",
        "A": "20.352",
        "B": "2624.4",
        "C": "-136.7",
        "Tmin": "393.5",
        "Tmax": "575.68"
    },
    "LiquidViscosityRPS": {
        "eqno": "13",
        "A": "19.441",
        "B": "-0.10551",
        "C": "0.000099651",
        "Tmin": "296.6",
        "Tmax": "520.08"
    },
    "COSTALDVolume": "0.3377",
    "DiameterLJ": "6.623128E-10",
    "EnergyLJ": "305.6995",
    "RacketParameter": "0.258523",
    "FullerVolume": "129.23",
    "MatthiasCopemanC2": "2.33694",
    "Parachor": "0.0456",
    "SpecificGravity": "0.961934",
    "Charge": "0",
    "CostaldAcentricFactor": "0.5296",
    "WilsonVolume": "0.104294",
    "UniquacR": "4.27",
    "UniquacQ": "3.51",
    "MatthiasCopemanC3": "-2.208",
    "ChaoSeaderAcentricFactor": "0.514148",
    "ChaoSeaderSolubilityParameter": "23672.2",
    "ChaoSeaderLiquidVolume": "0.104294",
    "UnifacVLE": {
        "group": "1"
    },
    "UnifacLLE": {
        "group": "1"
    },
    "Asog": {
        "group": "1"
    },
    "GCmethod": {
        "group": "1"
    },
    "Umr": {
        "group": "1"
    },
    "ModifiedUnifac": {
        "group": "1"
    },
    "CAS": "108-93-0",
    "Smiles": "OC1CCCCC1"
}