{
    "LibraryIndex": "102",
    "CompoundID": "Cyclobutane",
    "StructureFormula": "-(CH2)4-",
    "Family": "5",
    "CriticalTemperature": "459.93",
    "CriticalPressure": "4980000",
    "CriticalVolume": "0.21",
    "CriticalCompressibility": "0.273",
    "NormalBoilingPointTemperature": "285.66",
    "NormalMeltingPointTemperature": "182.48",
    "TriplePointTemperature": "182.48",
    "TriplePointPressure": "180.101",
    "MolecularWeight": "56.10632",
    "LiquidVolumeAtNormalBoilingPoint": "0.0814243",
    "AcentricityFactor": "0.18474",
    "RadiusOfGyration": "2.45E-10",
    "SolubilityParameter": "16020",
    "DipoleMoment": "0",
    "VanDerWaalsVolume": "0.04092",
    "VanDerWaalsArea": "5.4E+08",
    "HeatOfFormation": "2.85E+07",
    "GibbsEnergyOfFormation": "1.122E+08",
    "AbsEntropy": "265400",
    "HeatOfFusionAtMeltingPoint": "1088000",
    "HeatOfCombustion": "-2.5678E+09",
    "SolidDensity": {
        "eqno": "2",
        "A": "14.96111",
        "B": "0.0000555916",
        "C": "0",
        "D": "0",
        "E": "0",
        "Tmin": "173",
        "Tmax": "182.5"
    },
    "LiquidDensity": {
        "eqno": "105",
        "A": "1.407691",
        "B": "0.295395",
        "C": "459.93",
        "D": "0.248729",
        "E": "0",
        "Tmin": "182.48",
        "Tmax": "459.93"
    },
    "VaporPressure": {
        "eqno": "101",
        "A": "60.70694",
        "B": "-4389.85",
        "C": "-6.086364",
        "D": "7.387074E-06",
        "E": "2",
        "Tmin": "182.48",
        "Tmax": "459.93"
    },
    "HeatOfVaporization": {
        "eqno": "106",
        "A": "3.344974E+07",
        "B": "0.35995",
        "C": "-0.0547115",
        "D": "0.0583309",
        "E": "-0.0233634",
        "Tmin": "182.48",
        "Tmax": "459.93"
    },
    "SolidHeatCapacityCp": {
        "eqno": "4",
        "A": "-24126",
        "B": "1646.5",
        "C": "-13.114",
        "D": "0.043967",
        "E": "0",
        "Tmin": "25",
        "Tmax": "120"
    },
    "LiquidHeatCapacityCp": {
        "eqno": "16",
        "A": "-3355.973",
        "B": "25.71519",
        "C": "11.14976",
        "D": "-0.0000199586",
        "E": "4.55626E-06",
        "Tmin": "190",
        "Tmax": "298.1501"
    },
    "IdealGasHeatCapacityCp": {
        "eqno": "16",
        "A": "37380.05",
        "B": "-673.6637",
        "C": "12.72112",
        "D": "-0.000063263",
        "E": "1.539025E-09",
        "Tmin": "200",
        "Tmax": "1500"
    },
    "SecondVirialCoefficient": {
        "eqno": "104",
        "A": "0.130037",
        "B": "-132.3643",
        "C": "-8.684027",
        "D": "-204.0061",
        "E": "215.6664",
        "Tmin": "230",
        "Tmax": "1500"
    },
    "LiquidViscosity": {
        "eqno": "16",
        "A": "0.0000263799",
        "B": "486.4199",
        "C": "-9.034853",
        "D": "-0.00420404",
        "E": "4.708051E-07",
        "Tmin": "182.48",
        "Tmax": "400"
    },
    "VaporViscosity": {
        "eqno": "16",
        "A": "2.344771E-06",
        "B": "-353.1514",
        "C": "-11.15186",
        "D": "0.000996526",
        "E": "-0.0000002755",
        "Tmin": "182.48",
        "Tmax": "999.9998"
    },
    "LiquidThermalConductivity": {
        "eqno": "16",
        "A": "0.0169674",
        "B": "14.7154",
        "C": "-1.831383",
        "D": "-0.000155026",
        "E": "-0.0000048849",
        "Tmin": "182.48",
        "Tmax": "285.6601"
    },
    "VaporThermalConductivity": {
        "eqno": "16",
        "A": "0.00541541",
        "B": "-765.5803",
        "C": "-2.581507",
        "D": "0.00174448",
        "E": "-3.307726E-07",
        "Tmin": "182.48",
        "Tmax": "1000"
    },
    "SurfaceTension": {
        "eqno": "16",
        "A": "-0.00834272",
        "B": "113.8985",
        "C": "-4.119698",
        "D": "0.00522719",
        "E": "-0.00001579",
        "Tmin": "182.48",
        "Tmax": "459.93"
    },
    "RPPHeatCapacityCp": {
        "eqno": "4",
        "A": "37226.21",
        "B": "-77.82548",
        "C": "0.815135",
        "D": "-0.000593048",
        "E": "0",
        "Tmin": "50",
        "Tmax": "400"
    },
    "AntoineVaporPressure": {
        "eqno": "10",
        "A": "21.94339",
        "B": "3076.728",
        "C": "10.52672",
        "D": "0",
        "E": "0",
        "Tmin": "204.95",
        "Tmax": "433.15"
    },
    "LiquidViscosityRPS": {
        "eqno": "10",
        "A": "-11.36515",
        "B": "-1019.814",
        "C": "55.89796",
        "D": "0",
        "E": "0",
        "Tmin": "182.48",
        "Tmax": "367.94"
    },
    "Parachor": "0.0308894",
    "SpecificGravity": "0.698393",
    "UnifacVLE": {
        "group": "4"
    },
    "UnifacLLE": {
        "group": "4"
    },
    "Asog": {
        "group": "4"
    },
    "GCmethod": {
        "group": "4"
    },
    "Umr": {
        "group": "4"
    },
    "ModifiedUnifac": {
        "group": "4"
    },
    "CAS": "287-23-0",
    "Smiles": "C1CCC1"
}