{
    "LibraryIndex": "1406",
    "CompoundID": "Di-sec-butyl ether",
    "StructureFormula": "C2H5(CH3)CHOCH(CH3)C2H5",
    "Family": "61",
    "CriticalTemperature": "562",
    "CriticalPressure": "2556000",
    "CriticalVolume": "0.487",
    "CriticalCompressibility": "0.269",
    "NormalBoilingPointTemperature": "394.2",
    "NormalMeltingPointTemperature": "173.15",
    "TriplePointTemperature": "173.15",
    "TriplePointPressure": "0.0027863",
    "MolecularWeight": "130.2279",
    "LiquidVolumeAtNormalBoilingPoint": "0.171577",
    "AcentricityFactor": "0.329",
    "RadiusOfGyration": "4.373E-10",
    "SolubilityParameter": "14950",
    "VanDerWaalsVolume": "0.0924",
    "VanDerWaalsArea": "1.292E+09",
    "HeatOfFormation": "-3.609E+08",
    "GibbsEnergyOfFormation": "-1.157E+08",
    "AbsEntropy": "501000",
    "HeatOfFusionAtMeltingPoint": "0",
    "HeatOfCombustion": "-4.9233E+09",
    "SolidDensity": {
        "eqno": "100",
        "A": "8.4542",
        "B": "-0.0061032",
        "C": "0",
        "D": "0",
        "E": "0",
        "Tmin": "69.26",
        "Tmax": "173.15"
    },
    "LiquidDensity": {
        "eqno": "105",
        "A": "0.038135",
        "B": "0.072155",
        "C": "562",
        "D": "0.11862",
        "Tmin": "173.15",
        "Tmax": "559"
    },
    "VaporPressure": {
        "eqno": "101",
        "A": "102.5292",
        "B": "-8146.755",
        "C": "-11.97808",
        "D": "8.058954E-06",
        "E": "2",
        "Tmin": "173.15",
        "Tmax": "560"
    },
    "HeatOfVaporization": {
        "eqno": "106",
        "A": "5.5999E+07",
        "B": "0.34375",
        "C": "0.18962",
        "D": "-0.14755",
        "E": "-0.0040987",
        "Tmin": "173.15",
        "Tmax": "559"
    },
    "SolidHeatCapacityCp": {
        "eqno": "1",
        "A": "236620",
        "Tmin": "0",
        "Tmax": "562"
    },
    "LiquidHeatCapacityCp": {
        "eqno": "16",
        "A": "102180",
        "B": "-37.551",
        "C": "10.606",
        "D": "0.0064949",
        "E": "-0.0000048029",
        "Tmin": "300",
        "Tmax": "420"
    },
    "IdealGasHeatCapacityCp": {
        "eqno": "16",
        "A": "94528",
        "B": "-497.39",
        "C": "13.241",
        "D": "0.000057744",
        "E": "-1.2606E-09",
        "Tmin": "173.15",
        "Tmax": "1200"
    },
    "SecondVirialCoefficient": {
        "eqno": "104",
        "A": "0.31867",
        "B": "-341.87",
        "C": "-60.467",
        "D": "-9470.7",
        "E": "6002.4",
        "Tmin": "281",
        "Tmax": "1500"
    },
    "LiquidViscosity": {
        "eqno": "101",
        "A": "-10.318",
        "B": "1230.4",
        "C": "-0.20919",
        "D": "4.9411E-07",
        "E": "2",
        "Tmin": "173.15",
        "Tmax": "450"
    },
    "VaporViscosity": {
        "eqno": "102",
        "A": "1.1864E-07",
        "B": "0.74861",
        "C": "137.78",
        "D": "-4500.8",
        "Tmin": "173.15",
        "Tmax": "1000"
    },
    "LiquidThermalConductivity": {
        "eqno": "16",
        "A": "0.027499",
        "B": "27.604",
        "C": "-2.2754",
        "D": "0.00032105",
        "E": "-0.0000044406",
        "Tmin": "167.7",
        "Tmax": "453.15"
    },
    "VaporThermalConductivity": {
        "eqno": "102",
        "A": "0.00016749",
        "B": "0.96101",
        "C": "656.84",
        "D": "-691.7",
        "Tmin": "173.15",
        "Tmax": "1000"
    },
    "SurfaceTension": {
        "eqno": "16",
        "A": "-0.010066",
        "B": "43.992",
        "C": "-3.3461",
        "D": "0.00062354",
        "E": "-0.0000053912",
        "Tmin": "173.15",
        "Tmax": "559"
    },
    "RPPHeatCapacityCp": {
        "eqno": "4",
        "A": "-28426",
        "B": "952.53",
        "C": "-0.64748",
        "D": "0.00017987",
        "Tmin": "173.15",
        "Tmax": "1200"
    },
    "AntoineVaporPressure": {
        "eqno": "10",
        "A": "20.954",
        "B": "3141.6",
        "C": "-61.002",
        "Tmin": "350",
        "Tmax": "500"
    },
    "LiquidViscosityRPS": {
        "eqno": "12",
        "A": "-1.7138",
        "B": "-0.01814",
        "Tmin": "173.15",
        "Tmax": "394.2"
    },
    "COSTALDVolume": "0.509471",
    "DiameterLJ": "7.096626E-10",
    "EnergyLJ": "324.9059",
    "RacketParameter": "0.269",
    "FullerVolume": "174.89",
    "Parachor": "0.0642045",
    "SpecificGravity": "0.769756",
    "Charge": "0",
    "CostaldAcentricFactor": "0.329",
    "WilsonVolume": "0.171577",
    "UniquacR": "6.0909",
    "UniquacQ": "5.168",
    "ChaoSeaderAcentricFactor": "0.329",
    "ChaoSeaderSolubilityParameter": "14950",
    "ChaoSeaderLiquidVolume": "0.171577",
    "UnifacVLE": {
        "group": "1"
    },
    "UnifacLLE": {
        "group": "1"
    },
    "Asog": {
        "group": "1"
    },
    "Umr": {
        "group": "1"
    },
    "ModifiedUnifac": {
        "group": "1"
    },
    "CAS": "6863-58-7",
    "Smiles": "CCC(C)OC(C)CC"
}