{
    "LibraryIndex": "3801",
    "CompoundID": "Di-tert-butyl disulfide",
    "StructureFormula": "(CH3)3CS2C(CH3)3",
    "Family": "42",
    "CriticalTemperature": "689.7",
    "CriticalPressure": "3159000",
    "CriticalVolume": "0.518",
    "CriticalCompressibility": "0.285",
    "NormalBoilingPointTemperature": "473.6",
    "NormalMeltingPointTemperature": "268.2",
    "TriplePointTemperature": "268.2",
    "TriplePointPressure": "9.12",
    "MolecularWeight": "178.3585",
    "LiquidVolumeAtNormalBoilingPoint": "0.1947",
    "AcentricityFactor": "0.402005",
    "RadiusOfGyration": "4.686E-10",
    "SolubilityParameter": "15680",
    "DipoleMoment": "6.2E-30",
    "VanDerWaalsVolume": "0.1126",
    "VanDerWaalsArea": "1.457E+09",
    "HeatOfFormation": "-1.998E+08",
    "GibbsEnergyOfFormation": "3.427E+07",
    "AbsEntropy": "500100",
    "HeatOfFusionAtMeltingPoint": "1.31E+07",
    "HeatOfCombustion": "-5.665E+09",
    "SolidDensity": {
        "eqno": "100",
        "A": "6.7119",
        "B": "-0.0031282",
        "C": "0",
        "D": "0",
        "E": "0",
        "Tmin": "107.28",
        "Tmax": "268.2"
    },
    "LiquidDensity": {
        "eqno": "105",
        "A": "0.60778",
        "B": "0.31522",
        "C": "689.7",
        "D": "0.2884",
        "Tmin": "268.2",
        "Tmax": "689.7"
    },
    "VaporPressure": {
        "eqno": "101",
        "A": "113.63",
        "B": "-10180",
        "C": "-13.332",
        "D": "0.0000068178",
        "E": "2",
        "Tmin": "268.2",
        "Tmax": "689.7"
    },
    "HeatOfVaporization": {
        "eqno": "106",
        "A": "5.0039E+07",
        "B": "-1.4285",
        "C": "5.5884",
        "D": "-6.8503",
        "E": "3.0089",
        "Tmin": "268.2",
        "Tmax": "689.7"
    },
    "SolidHeatCapacityCp": {
        "eqno": "102",
        "A": "3730",
        "B": "0.79267",
        "C": "0",
        "D": "0",
        "Tmin": "50",
        "Tmax": "268.2"
    },
    "LiquidHeatCapacityCp": {
        "eqno": "16",
        "A": "273850",
        "B": "-799.3",
        "C": "13.794",
        "D": "-0.001521",
        "E": "0.0000014598",
        "Tmin": "268.2",
        "Tmax": "689.7"
    },
    "IdealGasHeatCapacityCp": {
        "eqno": "16",
        "A": "171300",
        "B": "-806",
        "C": "13.98",
        "D": "-0.00069575",
        "E": "1.6372E-07",
        "Tmin": "273",
        "Tmax": "1500"
    },
    "SecondVirialCoefficient": {
        "eqno": "104",
        "A": "0.3107",
        "B": "-418.41",
        "C": "-109.87",
        "D": "-34733",
        "E": "-2236.6",
        "Tmin": "344.85",
        "Tmax": "1500"
    },
    "LiquidViscosity": {
        "eqno": "101",
        "A": "-10.435",
        "B": "1172.7",
        "C": "0",
        "D": "0",
        "E": "0",
        "Tmin": "268.2",
        "Tmax": "473.65"
    },
    "VaporViscosity": {
        "eqno": "102",
        "A": "0.0000001005",
        "B": "0.79652",
        "C": "148.51",
        "D": "-7648.2",
        "Tmin": "268.2",
        "Tmax": "1000"
    },
    "LiquidThermalConductivity": {
        "eqno": "16",
        "A": "-0.019283",
        "B": "-53.989",
        "C": "-1.1745",
        "D": "-0.0017696",
        "E": "-1.3435E-07",
        "Tmin": "268.2",
        "Tmax": "473.65"
    },
    "VaporThermalConductivity": {
        "eqno": "102",
        "A": "0.00018425",
        "B": "0.91582",
        "C": "448.35",
        "D": "58650",
        "Tmin": "268.2",
        "Tmax": "1000"
    },
    "SurfaceTension": {
        "eqno": "16",
        "A": "-0.12216",
        "B": "-29.058",
        "C": "-1.4793",
        "D": "-0.001294",
        "E": "6.5007E-07",
        "Tmin": "268.2",
        "Tmax": "689.7"
    },
    "RPPHeatCapacityCp": {
        "eqno": "4",
        "A": "-7365.9",
        "B": "999.61",
        "C": "-0.67127",
        "D": "0.00016012",
        "Tmin": "273",
        "Tmax": "1500"
    },
    "AntoineVaporPressure": {
        "eqno": "10",
        "A": "21.558",
        "B": "4258.7",
        "C": "-49.2",
        "Tmin": "423.49",
        "Tmax": "600.96"
    },
    "COSTALDVolume": "0.638704",
    "DiameterLJ": "6.758875E-10",
    "EnergyLJ": "490.9247",
    "RacketParameter": "0.285",
    "FullerVolume": "148.779",
    "Parachor": "0.0758034",
    "SpecificGravity": "0.922",
    "Charge": "0",
    "CostaldAcentricFactor": "0.402005",
    "WilsonVolume": "0.1947",
    "UniquacR": "5.9221",
    "UniquacQ": "4.972",
    "ChaoSeaderAcentricFactor": "0.402005",
    "ChaoSeaderSolubilityParameter": "15680",
    "ChaoSeaderLiquidVolume": "0.1947",
    "ModifiedUnifac": {
        "group": "1"
    },
    "CAS": "110-06-5",
    "Smiles": "CC(C)(C)SSC(C)(C)C"
}