{
    "LibraryIndex": "1854",
    "CompoundID": "Dichloroacetyl chloride",
    "StructureFormula": "CHCl2COCl",
    "Family": "71",
    "CriticalTemperature": "585",
    "CriticalPressure": "4610000",
    "CriticalVolume": "0.283",
    "CriticalCompressibility": "0.268",
    "NormalBoilingPointTemperature": "380.45",
    "NormalMeltingPointTemperature": "230",
    "TriplePointTemperature": "230",
    "TriplePointPressure": "27.15",
    "MolecularWeight": "147.3877",
    "LiquidVolumeAtNormalBoilingPoint": "0.0969971",
    "AcentricityFactor": "0.308927",
    "RadiusOfGyration": "3.988E-10",
    "SolubilityParameter": "19510",
    "DipoleMoment": "5.27E-30",
    "VanDerWaalsVolume": "0.05458",
    "VanDerWaalsArea": "7.61E+08",
    "HeatOfFormation": "-2.4033E+08",
    "GibbsEnergyOfFormation": "-1.915E+08",
    "AbsEntropy": "350000",
    "HeatOfFusionAtMeltingPoint": "0",
    "HeatOfCombustion": "-6.2647E+08",
    "SolidDensity": {
        "eqno": "2",
        "A": "12.9",
        "B": "-5.7788E-17",
        "Tmin": "0",
        "Tmax": "9.5"
    },
    "LiquidDensity": {
        "eqno": "105",
        "A": "0.94766",
        "B": "0.26857",
        "C": "585",
        "D": "0.28586",
        "Tmin": "230",
        "Tmax": "585"
    },
    "VaporPressure": {
        "eqno": "101",
        "A": "74.72886",
        "B": "-6808.875",
        "C": "-7.735182",
        "D": "4.475716E-06",
        "E": "2",
        "Tmin": "230",
        "Tmax": "585"
    },
    "HeatOfVaporization": {
        "eqno": "106",
        "A": "1.182114E+08",
        "B": "5.662305",
        "C": "-14.25375",
        "D": "15.19267",
        "E": "-6.032208",
        "Tmin": "230",
        "Tmax": "585"
    },
    "LiquidHeatCapacityCp": {
        "eqno": "16",
        "A": "140380",
        "B": "-122.15",
        "C": "7.1438",
        "D": "0.0089927",
        "E": "-3.0698E-07",
        "Tmin": "292.5",
        "Tmax": "438.75"
    },
    "IdealGasHeatCapacityCp": {
        "eqno": "16",
        "A": "54272",
        "B": "-346.01",
        "C": "11.744",
        "D": "-0.00014147",
        "E": "6.1056E-08",
        "Tmin": "230",
        "Tmax": "1500"
    },
    "SecondVirialCoefficient": {
        "eqno": "104",
        "A": "0.1766",
        "B": "-214.27",
        "C": "-34.937",
        "D": "-11826",
        "E": "15252",
        "Tmin": "292.5",
        "Tmax": "1849.5"
    },
    "LiquidViscosity": {
        "eqno": "101",
        "A": "-11.762",
        "B": "1691.3",
        "C": "-0.020172",
        "D": "2.8483E-09",
        "E": "2",
        "Tmin": "230",
        "Tmax": "485"
    },
    "VaporViscosity": {
        "eqno": "102",
        "A": "1.4668E-07",
        "B": "0.7617",
        "C": "110.57",
        "D": "-0.0060267",
        "Tmin": "230",
        "Tmax": "1000"
    },
    "LiquidThermalConductivity": {
        "eqno": "16",
        "A": "0.045516",
        "B": "-168.82",
        "C": "-0.6335",
        "D": "-0.0052944",
        "E": "0.0000014358",
        "Tmin": "230",
        "Tmax": "380.45"
    },
    "VaporThermalConductivity": {
        "eqno": "102",
        "A": "0.00049754",
        "B": "0.6638",
        "C": "622.43",
        "D": "-0.0085753",
        "Tmin": "230",
        "Tmax": "1000"
    },
    "SurfaceTension": {
        "eqno": "16",
        "A": "-0.011582",
        "B": "124.7",
        "C": "-3.6985",
        "D": "0.0034242",
        "E": "-0.0000087498",
        "Tmin": "230",
        "Tmax": "585"
    },
    "RPPHeatCapacityCp": {
        "eqno": "4",
        "A": "45446",
        "B": "201.42",
        "C": "-0.15256",
        "D": "0.000042512",
        "Tmin": "230",
        "Tmax": "1500"
    },
    "AntoineVaporPressure": {
        "eqno": "10",
        "A": "21.845",
        "B": "3559.7",
        "C": "-36.056",
        "Tmin": "360.79",
        "Tmax": "515.15"
    },
    "LiquidViscosityRPS": {
        "eqno": "13",
        "A": "5.3427",
        "B": "-0.057555",
        "C": "0.000063183",
        "Tmin": "230",
        "Tmax": "380.45"
    },
    "COSTALDVolume": "0.290781",
    "DiameterLJ": "5.948562E-10",
    "EnergyLJ": "333.6986",
    "FullerVolume": "103.22",
    "Parachor": "0.0423",
    "SpecificGravity": "1.5348",
    "Charge": "0",
    "CostaldAcentricFactor": "0.370509",
    "WilsonVolume": "0.097018",
    "UniquacR": "3.597891",
    "UniquacQ": "3.044",
    "ChaoSeaderAcentricFactor": "0.370509",
    "ChaoSeaderSolubilityParameter": "19942.4",
    "ChaoSeaderLiquidVolume": "0.097018",
    "CAS": "79-36-7",
    "Smiles": "ClC(Cl)C(=O)Cl"
}