{
    "LibraryIndex": "316",
    "CompoundID": "Dicyclopentadiene",
    "StructureFormula": "C10H12",
    "Family": "14",
    "CriticalTemperature": "660",
    "CriticalPressure": "3060000",
    "CriticalVolume": "0.445",
    "CriticalCompressibility": "0.248",
    "NormalBoilingPointTemperature": "443",
    "NormalMeltingPointTemperature": "305.15",
    "TriplePointTemperature": "305.15",
    "TriplePointPressure": "566.19",
    "MolecularWeight": "132.2023",
    "LiquidVolumeAtNormalBoilingPoint": "0.134736",
    "AcentricityFactor": "0.288011",
    "RadiusOfGyration": "3.981E-10",
    "SolubilityParameter": "17800",
    "VanDerWaalsVolume": "0.08146",
    "VanDerWaalsArea": "9.3E+08",
    "HeatOfFormation": "1.961E+08",
    "GibbsEnergyOfFormation": "3.75E+08",
    "AbsEntropy": "240000",
    "HeatOfFusionAtMeltingPoint": "2090000",
    "MatthiasCopemanC1": "1.00701",
    "HeatOfCombustion": "-5.535E+09",
    "SolidDensity": {
        "eqno": "2",
        "A": "9.4692",
        "B": "-0.0037207",
        "Tmin": "122.06",
        "Tmax": "307"
    },
    "LiquidDensity": {
        "eqno": "105",
        "A": "0.41899",
        "B": "0.20539",
        "C": "660",
        "D": "0.34053",
        "Tmin": "299.82",
        "Tmax": "641.32"
    },
    "VaporPressure": {
        "eqno": "101",
        "A": "72.31496",
        "B": "-7292.827",
        "C": "-7.388294",
        "D": "3.746895E-06",
        "E": "2",
        "Tmin": "243.37",
        "Tmax": "660"
    },
    "HeatOfVaporization": {
        "eqno": "106",
        "A": "7.0543E+07",
        "B": "1.9867",
        "C": "-4.6545",
        "D": "5.1772",
        "E": "-2.0831",
        "Tmin": "215.37",
        "Tmax": "641.32"
    },
    "SolidHeatCapacityCp": {
        "eqno": "100",
        "A": "5863.1",
        "B": "689.22",
        "C": "-1.2292",
        "D": "0.0028409",
        "E": "-0.0000028796",
        "Tmin": "50",
        "Tmax": "305.15"
    },
    "LiquidHeatCapacityCp": {
        "eqno": "16",
        "A": "83937",
        "B": "-392.22",
        "C": "13.886",
        "D": "-0.0031138",
        "E": "0.000003368",
        "Tmin": "226.76",
        "Tmax": "443.15"
    },
    "IdealGasHeatCapacityCp": {
        "eqno": "16",
        "A": "38735",
        "B": "-535.99",
        "C": "13.553",
        "D": "-0.00031277",
        "E": "0.0000001075",
        "Tmin": "273",
        "Tmax": "1500.15"
    },
    "SecondVirialCoefficient": {
        "eqno": "104",
        "A": "0.30263",
        "B": "-423.69",
        "C": "-80.39",
        "D": "-8399.9",
        "E": "-29911",
        "Tmin": "330",
        "Tmax": "1500"
    },
    "LiquidViscosity": {
        "eqno": "101",
        "A": "-11.633",
        "B": "1272.8",
        "C": "0.067676",
        "D": "-1.2999E-07",
        "E": "2",
        "Tmin": "210",
        "Tmax": "528"
    },
    "VaporViscosity": {
        "eqno": "102",
        "A": "0.0000004337",
        "B": "0.561",
        "C": "232.6",
        "D": "-0.00081701",
        "Tmin": "305.15",
        "Tmax": "1000"
    },
    "LiquidThermalConductivity": {
        "eqno": "16",
        "A": "0.029848",
        "B": "47.178",
        "C": "-2.5363",
        "D": "0.0023572",
        "E": "-0.0000058893",
        "Tmin": "215.37",
        "Tmax": "443"
    },
    "VaporThermalConductivity": {
        "eqno": "102",
        "A": "0.00025878",
        "B": "0.8604",
        "C": "51.14",
        "D": "244020",
        "Tmin": "305.15",
        "Tmax": "1000"
    },
    "SurfaceTension": {
        "eqno": "16",
        "A": "-0.0036707",
        "B": "-111.23",
        "C": "-2.5419",
        "D": "0.0011565",
        "E": "-0.0000087684",
        "Tmin": "289.37",
        "Tmax": "641.32"
    },
    "RPPHeatCapacityCp": {
        "eqno": "4",
        "A": "-93645",
        "B": "1047.4",
        "C": "-0.74596",
        "D": "0.00019876",
        "Tmin": "298.15",
        "Tmax": "1500.15"
    },
    "AntoineVaporPressure": {
        "eqno": "10",
        "A": "20.716",
        "B": "3463.4",
        "C": "-65.612",
        "Tmin": "397.37",
        "Tmax": "593.37"
    },
    "LiquidViscosityRPS": {
        "eqno": "13",
        "A": "1.0484",
        "B": "-0.038478",
        "C": "0.000039089",
        "Tmin": "210",
        "Tmax": "443"
    },
    "COSTALDVolume": "0.47426",
    "DiameterLJ": "7.592001E-10",
    "EnergyLJ": "284.7627",
    "FullerVolume": "168.42",
    "MatthiasCopemanC2": "0",
    "Parachor": "0.0577",
    "SpecificGravity": "0.99181",
    "Charge": "0",
    "CostaldAcentricFactor": "0.2851",
    "WilsonVolume": "0.138585",
    "UniquacR": "5.8156",
    "UniquacQ": "4.548",
    "MatthiasCopemanC3": "0",
    "ChaoSeaderAcentricFactor": "0.285111",
    "ChaoSeaderSolubilityParameter": "17445.1",
    "ChaoSeaderLiquidVolume": "0.138585",
    "UnifacVLE": {
        "group": "2"
    },
    "UnifacLLE": {
        "group": "2"
    },
    "Asog": {
        "group": "2"
    },
    "GCmethod": {
        "group": "4"
    },
    "Umr": {
        "group": "2"
    },
    "ModifiedUnifac": {
        "group": "4"
    },
    "CAS": "77-73-6",
    "Smiles": "C1=CC2C(C3)C=CC3C2C1"
}