{
    "LibraryIndex": "6861",
    "CompoundID": "Diethylethanolamine",
    "StructureFormula": "HOCH2CH2N(CH2CH3)2",
    "Family": "68",
    "CriticalTemperature": "616",
    "CriticalPressure": "2650000",
    "CriticalVolume": "0.4231",
    "CriticalCompressibility": "0.218914",
    "NormalBoilingPointTemperature": "434.15",
    "NormalMeltingPointTemperature": "235.15",
    "TriplePointTemperature": "253",
    "TriplePointPressure": "4.85244",
    "MolecularWeight": "117.1894",
    "LiquidVolumeAtNormalBoilingPoint": "0.132864",
    "AcentricityFactor": "0.781757",
    "RadiusOfGyration": "4.407E-10",
    "SolubilityParameter": "19100",
    "DipoleMoment": "8.11E-30",
    "VanDerWaalsVolume": "0.08063",
    "VanDerWaalsArea": "1.133E+09",
    "HeatOfFormation": "-2.575E+08",
    "GibbsEnergyOfFormation": "-3.323E+07",
    "AbsEntropy": "459800",
    "HeatOfFusionAtMeltingPoint": "1.84E+07",
    "HeatOfCombustion": "-4.03338E+09",
    "SolidDensity": {
        "eqno": "100",
        "A": "10.088",
        "B": "-0.0049843",
        "C": "0",
        "D": "0",
        "E": "0",
        "Tmin": "101.2",
        "Tmax": "253"
    },
    "LiquidDensity": {
        "eqno": "105",
        "A": "0.63795",
        "B": "0.25988",
        "C": "592",
        "D": "0.27186",
        "Tmin": "253",
        "Tmax": "592"
    },
    "VaporPressure": {
        "eqno": "101",
        "A": "442.3122",
        "B": "-22650.03",
        "C": "-64.35227",
        "D": "0.0000641088",
        "E": "2",
        "Tmin": "253",
        "Tmax": "592"
    },
    "HeatOfVaporization": {
        "eqno": "106",
        "A": "6.442525E+07",
        "B": "-0.590881",
        "C": "4.028331",
        "D": "-5.586056",
        "E": "2.388691",
        "Tmin": "253",
        "Tmax": "592"
    },
    "SolidHeatCapacityCp": {
        "eqno": "102",
        "A": "2220",
        "B": "0.79267",
        "C": "0",
        "D": "0",
        "Tmin": "50",
        "Tmax": "253"
    },
    "LiquidHeatCapacityCp": {
        "eqno": "4",
        "A": "28933.37",
        "B": "738.1104",
        "C": "-0.669126",
        "D": "0.000593149",
        "Tmin": "253",
        "Tmax": "592"
    },
    "IdealGasHeatCapacityCp": {
        "eqno": "16",
        "A": "91061",
        "B": "-562.7",
        "C": "13.172",
        "D": "-0.000023606",
        "E": "6.7111E-09",
        "Tmin": "273",
        "Tmax": "1200"
    },
    "SecondVirialCoefficient": {
        "eqno": "104",
        "A": "0.27423",
        "B": "-227.63",
        "C": "-93.133",
        "D": "-46929",
        "E": "69828",
        "Tmin": "296",
        "Tmax": "1500"
    },
    "LiquidViscosity": {
        "eqno": "101",
        "A": "-83.307",
        "B": "6061.8",
        "C": "10.089",
        "D": "-1.4583E-07",
        "E": "2",
        "Tmin": "253",
        "Tmax": "516"
    },
    "VaporViscosity": {
        "eqno": "102",
        "A": "1.3335E-07",
        "B": "0.7599",
        "C": "186.08",
        "D": "-6648.4",
        "Tmin": "253",
        "Tmax": "1000"
    },
    "LiquidThermalConductivity": {
        "eqno": "16",
        "A": "-0.0045149",
        "B": "-46.605",
        "C": "-1.1875",
        "D": "-0.0019723",
        "E": "-5.2781E-08",
        "Tmin": "253",
        "Tmax": "443"
    },
    "VaporThermalConductivity": {
        "eqno": "102",
        "A": "0.00013877",
        "B": "0.99774",
        "C": "582.26",
        "D": "23748",
        "Tmin": "253",
        "Tmax": "1000"
    },
    "SurfaceTension": {
        "eqno": "2",
        "A": "0.065",
        "B": "-0.00011",
        "Tmin": "253",
        "Tmax": "592"
    },
    "RPPHeatCapacityCp": {
        "eqno": "4",
        "A": "-23633",
        "B": "791.71",
        "C": "-0.51703",
        "D": "0.00013437",
        "Tmin": "273",
        "Tmax": "1200"
    },
    "AntoineVaporPressure": {
        "eqno": "10",
        "A": "23.092",
        "B": "4628.3",
        "C": "-36.082",
        "Tmin": "360.05",
        "Tmax": "520.63"
    },
    "LiquidViscosityRPS": {
        "eqno": "12",
        "A": "6.4",
        "B": "-0.04",
        "Tmin": "253",
        "Tmax": "436.15"
    },
    "COSTALDVolume": "0.438537",
    "DiameterLJ": "7.157819E-10",
    "EnergyLJ": "298.6167",
    "RacketParameter": "0.231974",
    "FullerVolume": "140.7",
    "Parachor": "0.05675",
    "SpecificGravity": "0.884",
    "Charge": "0",
    "CostaldAcentricFactor": "0.781757",
    "WilsonVolume": "0.132864",
    "UniquacR": "5.315095",
    "UniquacQ": "4.532",
    "ApiSrkS1": "1.602722",
    "ApiSrkS2": "0",
    "ChaoSeaderAcentricFactor": "0.781757",
    "ChaoSeaderSolubilityParameter": "19100",
    "ChaoSeaderLiquidVolume": "0.132864",
    "UnifacVLE": {
        "group": "1"
    },
    "Asog": {
        "group": "1"
    },
    "Umr": {
        "group": "1"
    },
    "ModifiedUnifac": {
        "group": "1"
    },
    "CAS": "100-37-8",
    "Smiles": "CCN(CC)CCO"
}