{
    "LibraryIndex": "1818",
    "CompoundID": "Diethyl sulfide",
    "StructureFormula": "CH3CH2SCH2CH3",
    "Family": "42",
    "CriticalTemperature": "557",
    "CriticalPressure": "3960000",
    "CriticalVolume": "0.318",
    "CriticalCompressibility": "0.269",
    "NormalBoilingPointTemperature": "365.25",
    "NormalMeltingPointTemperature": "169.22",
    "TriplePointTemperature": "169.2",
    "TriplePointPressure": "0.099321",
    "MolecularWeight": "90.18719",
    "LiquidVolumeAtNormalBoilingPoint": "0.10851",
    "AcentricityFactor": "0.295",
    "RadiusOfGyration": "3.212E-10",
    "SolubilityParameter": "17490",
    "DipoleMoment": "5.14E-30",
    "VanDerWaalsVolume": "0.0586",
    "VanDerWaalsArea": "8.24E+08",
    "HeatOfFormation": "-8.347E+07",
    "GibbsEnergyOfFormation": "1.778E+07",
    "AbsEntropy": "368000",
    "HeatOfFusionAtMeltingPoint": "1.19035E+07",
    "MatthiasCopemanC1": "0.90128",
    "HeatOfCombustion": "-2.9607E+09",
    "SolidDensity": {
        "eqno": "2",
        "A": "10.811",
        "B": "-3.1253E-09",
        "C": "0",
        "D": "0",
        "E": "0",
        "Tmin": "83.15",
        "Tmax": "92.65"
    },
    "LiquidDensity": {
        "eqno": "105",
        "A": "0.71845",
        "B": "0.24674",
        "C": "557.16",
        "D": "0.25292",
        "Tmin": "169.2",
        "Tmax": "557.15"
    },
    "VaporPressure": {
        "eqno": "101",
        "A": "70.99138",
        "B": "-6108.92",
        "C": "-7.37143",
        "D": "5.835752E-06",
        "E": "2",
        "Tmin": "169.2",
        "Tmax": "557.15"
    },
    "HeatOfVaporization": {
        "eqno": "106",
        "A": "4.6317E+07",
        "B": "0.40563",
        "C": "-0.17525",
        "D": "0.12561",
        "E": "0.018959",
        "Tmin": "169.2",
        "Tmax": "536.73"
    },
    "SolidHeatCapacityCp": {
        "eqno": "100",
        "A": "-11543",
        "B": "1074.2",
        "C": "-1.061",
        "D": "-0.019344",
        "E": "0.000072553",
        "Tmin": "15.97",
        "Tmax": "159.4"
    },
    "LiquidHeatCapacityCp": {
        "eqno": "16",
        "A": "145900",
        "B": "1485.7",
        "C": "-9.9348",
        "D": "0.077005",
        "E": "-0.000088463",
        "Tmin": "181.95",
        "Tmax": "322.08"
    },
    "IdealGasHeatCapacityCp": {
        "eqno": "16",
        "A": "84916",
        "B": "-751.54",
        "C": "12.969",
        "D": "-0.00026179",
        "E": "6.4336E-08",
        "Tmin": "200",
        "Tmax": "1500"
    },
    "SecondVirialCoefficient": {
        "eqno": "104",
        "A": "0.16441",
        "B": "-234.17",
        "C": "-39.709",
        "D": "11874",
        "E": "-35686",
        "Tmin": "278.5",
        "Tmax": "1949.5"
    },
    "LiquidViscosity": {
        "eqno": "101",
        "A": "-2.9987",
        "B": "606.92",
        "C": "-1.2077",
        "D": "8.2651E-07",
        "E": "2",
        "Tmin": "225",
        "Tmax": "457"
    },
    "VaporViscosity": {
        "eqno": "102",
        "A": "6.8477E-08",
        "B": "0.85168",
        "C": "55.152",
        "D": "236.99",
        "Tmin": "169.2",
        "Tmax": "1000"
    },
    "LiquidThermalConductivity": {
        "eqno": "16",
        "A": "-0.07619",
        "B": "7.9978",
        "C": "-1.3835",
        "D": "-0.00020735",
        "E": "-0.0000016592",
        "Tmin": "169.2",
        "Tmax": "365.25"
    },
    "VaporThermalConductivity": {
        "eqno": "102",
        "A": "0.0017352",
        "B": "0.67658",
        "C": "1116.5",
        "D": "181260",
        "Tmin": "169.2",
        "Tmax": "1000"
    },
    "SurfaceTension": {
        "eqno": "16",
        "A": "-0.014023",
        "B": "40.038",
        "C": "-3.1023",
        "D": "0.00060236",
        "E": "-0.0000051915",
        "Tmin": "169.2",
        "Tmax": "536.73"
    },
    "RPPHeatCapacityCp": {
        "eqno": "100",
        "A": "36043",
        "B": "216.86",
        "C": "0.32917",
        "D": "-0.00057212",
        "E": "2.4112E-07",
        "Tmin": "273",
        "Tmax": "1000"
    },
    "RelativeStaticPermittivity": {
        "eqno": "120",
        "A": "-4.458",
        "B": "-2860",
        "C": "-17.16",
        "Tmin": "280",
        "Tmax": "450"
    },
    "AntoineVaporPressure": {
        "eqno": "10",
        "A": "21.747",
        "B": "3457.8",
        "C": "-26.458",
        "Tmin": "337.07",
        "Tmax": "495.89"
    },
    "LiquidViscosityRPS": {
        "eqno": "12",
        "A": "-4.6508",
        "B": "-0.01037",
        "Tmin": "225",
        "Tmax": "365.25"
    },
    "COSTALDVolume": "0.312895",
    "DiameterLJ": "6.156747E-10",
    "EnergyLJ": "322.0153",
    "RacketParameter": "0.269",
    "FullerVolume": "103.932",
    "MatthiasCopemanC2": "0",
    "Parachor": "0.0429092",
    "SpecificGravity": "0.837",
    "Charge": "0",
    "CostaldAcentricFactor": "0.295",
    "WilsonVolume": "0.10851",
    "UniquacR": "3.8629",
    "UniquacQ": "3.296",
    "MatthiasCopemanC3": "0",
    "ChaoSeaderAcentricFactor": "0.295",
    "ChaoSeaderSolubilityParameter": "17490",
    "ChaoSeaderLiquidVolume": "0.10851",
    "UnifacVLE": {
        "group": "1"
    },
    "Umr": {
        "group": "1"
    },
    "ModifiedUnifac": {
        "group": "1"
    },
    "CAS": "352-93-2",
    "Smiles": "CCSCC"
}