{
    "LibraryIndex": "1202",
    "CompoundID": "Diethylene glycol",
    "StructureFormula": "HOCH2CH2OCH2CH2OH",
    "Family": "49",
    "CriticalTemperature": "744.6",
    "CriticalPressure": "4600000",
    "CriticalVolume": "0.312",
    "CriticalCompressibility": "0.232",
    "NormalBoilingPointTemperature": "517.95",
    "NormalMeltingPointTemperature": "262.7",
    "TriplePointTemperature": "262.7",
    "TriplePointPressure": "0.00319709",
    "MolecularWeight": "106.1204",
    "LiquidVolumeAtNormalBoilingPoint": "0.0952681",
    "AcentricityFactor": "0.622105",
    "RadiusOfGyration": "3.739E-10",
    "SolubilityParameter": "28920",
    "DipoleMoment": "8.41E-30",
    "VanDerWaalsVolume": "0.0607",
    "VanDerWaalsArea": "8.92E+08",
    "HeatOfFormation": "-5.464E+08",
    "GibbsEnergyOfFormation": "-3.84E+08",
    "AbsEntropy": "440000",
    "HeatOfFusionAtMeltingPoint": "1.3481E+07",
    "MatthiasCopemanC1": "3.1418",
    "HeatOfCombustion": "-2.155E+09",
    "SolidDensity": {
        "eqno": "2",
        "A": "13.607",
        "B": "-0.0056939",
        "Tmin": "105.08",
        "Tmax": "262.7"
    },
    "LiquidDensity": {
        "eqno": "105",
        "A": "0.81894",
        "B": "0.25823",
        "C": "744.6",
        "D": "0.23979",
        "Tmin": "262.7",
        "Tmax": "719.24"
    },
    "VaporPressure": {
        "eqno": "101",
        "A": "46.26595",
        "B": "-10205.15",
        "C": "-2.102723",
        "D": "-7.036466E-06",
        "E": "2",
        "Tmin": "262.7",
        "Tmax": "744.6"
    },
    "HeatOfVaporization": {
        "eqno": "106",
        "A": "1.0853E+08",
        "B": "-0.00876655",
        "C": "1.770951",
        "D": "-1.359893",
        "E": "-0.0210292",
        "Tmin": "262.7",
        "Tmax": "744.6"
    },
    "SolidHeatCapacityCp": {
        "eqno": "100",
        "A": "5791.1",
        "B": "739.7",
        "C": "-1.4583",
        "D": "0.003773",
        "E": "-0.0000043193",
        "Tmin": "50",
        "Tmax": "262.7"
    },
    "LiquidHeatCapacityCp": {
        "eqno": "16",
        "A": "188290",
        "B": "227.63",
        "C": "5.7157",
        "D": "0.020545",
        "E": "-0.000018798",
        "Tmin": "262.7",
        "Tmax": "513.15"
    },
    "IdealGasHeatCapacityCp": {
        "eqno": "16",
        "A": "82107",
        "B": "-687.16",
        "C": "13.353",
        "D": "-0.00070647",
        "E": "2.4155E-07",
        "Tmin": "200",
        "Tmax": "1500"
    },
    "SecondVirialCoefficient": {
        "eqno": "104",
        "A": "0.0058126",
        "B": "205.06",
        "C": "-277.68",
        "D": "1325800",
        "E": "-7165900",
        "Tmin": "372.3",
        "Tmax": "1564"
    },
    "LiquidViscosity": {
        "eqno": "101",
        "A": "-374.29",
        "B": "18192",
        "C": "55.132",
        "D": "-0.000049166",
        "E": "2",
        "Tmin": "262.7",
        "Tmax": "595.68"
    },
    "VaporViscosity": {
        "eqno": "102",
        "A": "6.4523E-08",
        "B": "0.8468",
        "C": "24.322",
        "D": "7352.9",
        "Tmin": "262.7",
        "Tmax": "1000"
    },
    "LiquidThermalConductivity": {
        "eqno": "16",
        "A": "-0.11579",
        "B": "8.2246",
        "C": "-1.6466",
        "D": "0.002673",
        "E": "-0.0000035412",
        "Tmin": "262.7",
        "Tmax": "517.95"
    },
    "VaporThermalConductivity": {
        "eqno": "102",
        "A": "500.16",
        "B": "1.0276",
        "C": "7.9617E+09",
        "D": "-7.5258E+11",
        "Tmin": "262.7",
        "Tmax": "1000"
    },
    "SurfaceTension": {
        "eqno": "116",
        "A": "0",
        "B": "-0.0648458",
        "C": "0.111405",
        "D": "0.156705",
        "E": "-0.141678",
        "Tmin": "200",
        "Tmax": "744.6"
    },
    "RPPHeatCapacityCp": {
        "eqno": "4",
        "A": "-8099.9",
        "B": "599.05",
        "C": "-0.41929",
        "D": "0.00011046",
        "Tmin": "200",
        "Tmax": "1500"
    },
    "RelativeStaticPermittivity": {
        "eqno": "120",
        "A": "-10.44195",
        "B": "-9962.105",
        "C": "-59.06982",
        "Tmin": "278",
        "Tmax": "744"
    },
    "AntoineVaporPressure": {
        "eqno": "10",
        "A": "20.901",
        "B": "3422.4",
        "C": "-153.31",
        "Tmin": "447.33",
        "Tmax": "668.51"
    },
    "LiquidViscosityRPS": {
        "eqno": "13",
        "A": "9.862",
        "B": "-0.057143",
        "C": "0.000042368",
        "Tmin": "262.7",
        "Tmax": "595.68"
    },
    "COSTALDVolume": "0.3889",
    "DiameterLJ": "7.306526E-10",
    "EnergyLJ": "252.6928",
    "FullerVolume": "105.03",
    "MatthiasCopemanC2": "-8.3213",
    "Parachor": "0.0445199",
    "SpecificGravity": "1.12142",
    "Charge": "0",
    "CostaldAcentricFactor": "1.2005",
    "WilsonVolume": "0.0952681",
    "UniquacR": "4.9415",
    "UniquacQ": "4.8",
    "MatthiasCopemanC3": "13.224",
    "ChaoSeaderAcentricFactor": "0.621104",
    "ChaoSeaderSolubilityParameter": "27775.2",
    "ChaoSeaderLiquidVolume": "0.0952681",
    "UnifacVLE": {
        "group": "1"
    },
    "UnifacLLE": {
        "group": "1"
    },
    "Asog": {
        "group": "1"
    },
    "GCmethod": {
        "group": "1"
    },
    "Umr": {
        "group": "1"
    },
    "ModifiedUnifac": {
        "group": "1"
    },
    "CAS": "111-46-6",
    "Smiles": "OCCOCCO"
}