{
    "LibraryIndex": "1824",
    "CompoundID": "Diethyl disulfide",
    "StructureFormula": "C2H5SSC2H5",
    "Family": "42",
    "CriticalTemperature": "642",
    "CriticalPressure": "3870000",
    "CriticalVolume": "0.358",
    "CriticalCompressibility": "0.26",
    "NormalBoilingPointTemperature": "427.15",
    "NormalMeltingPointTemperature": "171.65",
    "TriplePointTemperature": "171.64",
    "TriplePointPressure": "0.000220562",
    "MolecularWeight": "122.2522",
    "LiquidVolumeAtNormalBoilingPoint": "0.12376",
    "AcentricityFactor": "0.346925",
    "RadiusOfGyration": "3.615E-10",
    "SolubilityParameter": "18630",
    "DipoleMoment": "6.54E-30",
    "VanDerWaalsVolume": "0.0705",
    "VanDerWaalsArea": "9.54E+08",
    "HeatOfFormation": "-7.47E+07",
    "GibbsEnergyOfFormation": "2.301E+07",
    "AbsEntropy": "414000",
    "HeatOfFusionAtMeltingPoint": "9406000",
    "MatthiasCopemanC1": "1",
    "HeatOfCombustion": "-3.257E+09",
    "SolidDensity": {
        "eqno": "2",
        "A": "11.385",
        "B": "-0.0073655",
        "C": "0",
        "D": "0",
        "E": "0",
        "Tmin": "68.65",
        "Tmax": "171.63"
    },
    "LiquidDensity": {
        "eqno": "105",
        "A": "0.77633",
        "B": "0.27774",
        "C": "642",
        "D": "0.3008",
        "Tmin": "171.63",
        "Tmax": "642"
    },
    "VaporPressure": {
        "eqno": "101",
        "A": "177.1651",
        "B": "-11358.16",
        "C": "-23.65597",
        "D": "0.0000232121",
        "E": "2",
        "Tmin": "171.63",
        "Tmax": "642"
    },
    "HeatOfVaporization": {
        "eqno": "106",
        "A": "5.898575E+07",
        "B": "0.279736",
        "C": "0.523521",
        "D": "-0.500907",
        "E": "0.0214669",
        "Tmin": "171.63",
        "Tmax": "642"
    },
    "SolidHeatCapacityCp": {
        "eqno": "100",
        "A": "-16428",
        "B": "1949.1",
        "C": "-14.93",
        "D": "0.073624",
        "E": "-0.00014251",
        "Tmin": "34.92",
        "Tmax": "152.34"
    },
    "LiquidHeatCapacityCp": {
        "eqno": "16",
        "A": "184820",
        "B": "1402.4",
        "C": "-9.485",
        "D": "0.072797",
        "E": "-0.00007939",
        "Tmin": "168.17",
        "Tmax": "299.3"
    },
    "IdealGasHeatCapacityCp": {
        "eqno": "16",
        "A": "100900",
        "B": "-621.21",
        "C": "12.713",
        "D": "-0.0000050655",
        "E": "-1.705E-08",
        "Tmin": "200",
        "Tmax": "1500"
    },
    "SecondVirialCoefficient": {
        "eqno": "104",
        "A": "0.22999",
        "B": "-298.83",
        "C": "-65.123",
        "D": "-33026",
        "E": "42588",
        "Tmin": "321",
        "Tmax": "1761"
    },
    "LiquidViscosity": {
        "eqno": "101",
        "A": "-12.559",
        "B": "1373.4",
        "C": "0.15118",
        "D": "-3.7692E-07",
        "E": "2",
        "Tmin": "171.63",
        "Tmax": "542"
    },
    "VaporViscosity": {
        "eqno": "102",
        "A": "6.5143E-08",
        "B": "0.87157",
        "C": "110.73",
        "D": "-9132.4",
        "Tmin": "171.63",
        "Tmax": "1000"
    },
    "LiquidThermalConductivity": {
        "eqno": "16",
        "A": "-0.047803",
        "B": "3.9799",
        "C": "-1.4697",
        "D": "-0.00042308",
        "E": "-0.0000011998",
        "Tmin": "171.63",
        "Tmax": "427.14"
    },
    "VaporThermalConductivity": {
        "eqno": "102",
        "A": "0.00017171",
        "B": "0.93356",
        "C": "610.03",
        "D": "20030",
        "Tmin": "171.64",
        "Tmax": "1000"
    },
    "SurfaceTension": {
        "eqno": "16",
        "A": "-0.010614",
        "B": "45.537",
        "C": "-3.1313",
        "D": "0.00068508",
        "E": "-0.0000047035",
        "Tmin": "171.63",
        "Tmax": "642"
    },
    "RPPHeatCapacityCp": {
        "eqno": "4",
        "A": "35231",
        "B": "424.66",
        "C": "-0.23005",
        "D": "0.000046108",
        "Tmin": "200",
        "Tmax": "1500"
    },
    "AntoineVaporPressure": {
        "eqno": "10",
        "A": "20.962",
        "B": "3433.2",
        "C": "-63.337",
        "Tmin": "386.78",
        "Tmax": "567.73"
    },
    "LiquidViscosityRPS": {
        "eqno": "12",
        "A": "-1.6558",
        "B": "-0.01741",
        "Tmin": "171.63",
        "Tmax": "427.13"
    },
    "COSTALDVolume": "0.379729",
    "DiameterLJ": "6.671723E-10",
    "EnergyLJ": "328.3615",
    "RacketParameter": "0.26",
    "FullerVolume": "115.933",
    "MatthiasCopemanC2": "0",
    "Parachor": "0.0515886",
    "SpecificGravity": "0.997",
    "Charge": "0",
    "CostaldAcentricFactor": "0.346925",
    "WilsonVolume": "0.12376",
    "UniquacR": "4.5748",
    "UniquacQ": "3.816",
    "MatthiasCopemanC3": "0",
    "ChaoSeaderAcentricFactor": "0.346925",
    "ChaoSeaderSolubilityParameter": "18630",
    "ChaoSeaderLiquidVolume": "0.12376",
    "UnifacVLE": {
        "group": "2"
    },
    "Umr": {
        "group": "2"
    },
    "CAS": "110-81-6",
    "Smiles": "CCSSCC"
}