{
    "LibraryIndex": "1724",
    "CompoundID": "Diethanolamine",
    "StructureFormula": "(HOCH2CH2)2NH",
    "Family": "68",
    "CriticalTemperature": "736.6",
    "CriticalPressure": "4720000",
    "CriticalVolume": "0.349",
    "CriticalCompressibility": "0.243",
    "NormalBoilingPointTemperature": "542",
    "NormalMeltingPointTemperature": "301.15",
    "TriplePointTemperature": "301.15",
    "TriplePointPressure": "0.102031",
    "MolecularWeight": "105.1356",
    "LiquidVolumeAtNormalBoilingPoint": "0.096244",
    "AcentricityFactor": "0.991515",
    "RadiusOfGyration": "3.907E-10",
    "SolubilityParameter": "29260",
    "DipoleMoment": "2.84E-30",
    "VanDerWaalsVolume": "0.06508",
    "VanDerWaalsArea": "9.31E+08",
    "HeatOfFormation": "-3.73E+08",
    "GibbsEnergyOfFormation": "-2.2574E+08",
    "AbsEntropy": "429000",
    "HeatOfFusionAtMeltingPoint": "2.5104E+07",
    "MatthiasCopemanC1": "1.85",
    "HeatOfCombustion": "-2.4439E+09",
    "SolidDensity": {
        "eqno": "2",
        "A": "13.174",
        "B": "-0.0048077",
        "C": "0",
        "D": "0",
        "E": "0",
        "Tmin": "120.46",
        "Tmax": "301.15"
    },
    "LiquidDensity": {
        "eqno": "105",
        "A": "0.5251",
        "B": "0.20924",
        "C": "736.61",
        "D": "0.18363",
        "Tmin": "283.15",
        "Tmax": "736.6"
    },
    "VaporPressure": {
        "eqno": "10",
        "A": "23.735",
        "B": "5441.7",
        "C": "-95.519",
        "Tmin": "301.15",
        "Tmax": "736.6"
    },
    "HeatOfVaporization": {
        "eqno": "106",
        "A": "7.90134E+07",
        "B": "-1.865152",
        "C": "6.820965",
        "D": "-7.963053",
        "E": "3.251551",
        "Tmin": "301.15",
        "Tmax": "713.68"
    },
    "SolidHeatCapacityCp": {
        "eqno": "100",
        "A": "5726.4",
        "B": "678.12",
        "C": "-1.2202",
        "D": "0.0028487",
        "E": "-0.0000029189",
        "Tmin": "50",
        "Tmax": "301.15"
    },
    "LiquidHeatCapacityCp": {
        "eqno": "4",
        "A": "88234.68",
        "B": "483.2566",
        "C": "0.294569",
        "D": "-0.000214761",
        "Tmin": "200",
        "Tmax": "715"
    },
    "IdealGasHeatCapacityCp": {
        "eqno": "16",
        "A": "92216",
        "B": "-624.1",
        "C": "12.938",
        "D": "-0.00014779",
        "E": "6.6337E-08",
        "Tmin": "273",
        "Tmax": "1500.1"
    },
    "SecondVirialCoefficient": {
        "eqno": "104",
        "A": "0.25716",
        "B": "-224.15",
        "C": "-187.3",
        "D": "-175320",
        "E": "231800",
        "Tmin": "368.3",
        "Tmax": "1500"
    },
    "LiquidViscosity": {
        "eqno": "101",
        "A": "-0.28702",
        "B": "6080.5",
        "C": "-3.8708",
        "D": "0.00001517",
        "E": "2",
        "Tmin": "293.15",
        "Tmax": "589.28"
    },
    "VaporViscosity": {
        "eqno": "102",
        "A": "4.7852E-08",
        "B": "0.89857",
        "C": "99.058",
        "D": "-7265.2",
        "Tmin": "301.15",
        "Tmax": "1000"
    },
    "LiquidThermalConductivity": {
        "eqno": "16",
        "A": "-0.91328",
        "B": "16.824",
        "C": "-0.15997",
        "D": "0.0011516",
        "E": "-0.0000013756",
        "Tmin": "301.15",
        "Tmax": "673.15"
    },
    "VaporThermalConductivity": {
        "eqno": "102",
        "A": "-10221",
        "B": "0.42596",
        "C": "-2.5172E+09",
        "D": "-7.9932E+10",
        "Tmin": "301.15",
        "Tmax": "1000"
    },
    "SurfaceTension": {
        "eqno": "16",
        "A": "-0.146398",
        "B": "45.86264",
        "C": "-1.696703",
        "D": "-0.000291273",
        "E": "-1.334366E-07",
        "Tmin": "301.15",
        "Tmax": "736.6"
    },
    "RPPHeatCapacityCp": {
        "eqno": "4",
        "A": "9793.4",
        "B": "530.15",
        "C": "-0.31974",
        "D": "0.000077668",
        "Tmin": "273",
        "Tmax": "1500.1"
    },
    "RelativeStaticPermittivity": {
        "eqno": "120",
        "A": "-13.04345",
        "B": "-12719.43",
        "C": "32.79742",
        "Tmin": "303",
        "Tmax": "715"
    },
    "AntoineVaporPressure": {
        "eqno": "10",
        "A": "23.735",
        "B": "5441.7",
        "C": "-95.519",
        "Tmin": "430",
        "Tmax": "640"
    },
    "LiquidViscosityRPS": {
        "eqno": "12",
        "A": "8.1033",
        "B": "-0.031788",
        "Tmin": "293.15",
        "Tmax": "589.28"
    },
    "COSTALDVolume": "0.349015",
    "DiameterLJ": "7.174515E-10",
    "EnergyLJ": "286.6829",
    "RacketParameter": "0.243",
    "FullerVolume": "105.77",
    "MatthiasCopemanC2": "0",
    "Parachor": "0.0453451",
    "SpecificGravity": "1.101108",
    "Charge": "0",
    "CostaldAcentricFactor": "0.991515",
    "WilsonVolume": "0.096244",
    "UniquacR": "5.2302",
    "UniquacQ": "4.956",
    "MatthiasCopemanC3": "0",
    "ChaoSeaderAcentricFactor": "0.952882",
    "ChaoSeaderSolubilityParameter": "29260",
    "ChaoSeaderLiquidVolume": "0.096244",
    "UnifacVLE": {
        "group": "1"
    },
    "Asog": {
        "group": "1"
    },
    "Umr": {
        "group": "1"
    },
    "ModifiedUnifac": {
        "group": "1"
    },
    "CAS": "111-42-2",
    "Smiles": "OCCNCCO"
}