{
    "LibraryIndex": "1069",
    "CompoundID": "Diisopropyl ketone",
    "StructureFormula": "(CH3)2CHCOCH(CH3)2",
    "Family": "26",
    "CriticalTemperature": "582",
    "CriticalPressure": "3380000",
    "CriticalVolume": "0.416",
    "CriticalCompressibility": "0.262",
    "NormalBoilingPointTemperature": "397.5",
    "NormalMeltingPointTemperature": "204",
    "TriplePointTemperature": "204.81",
    "TriplePointPressure": "0.820585",
    "MolecularWeight": "114.1855",
    "LiquidVolumeAtNormalBoilingPoint": "0.142561",
    "AcentricityFactor": "0.404427",
    "RadiusOfGyration": "3.904E-10",
    "SolubilityParameter": "16330",
    "DipoleMoment": "9.11E-30",
    "VanDerWaalsVolume": "0.07994",
    "VanDerWaalsArea": "1.122E+09",
    "HeatOfFormation": "-3.16E+08",
    "GibbsEnergyOfFormation": "-1.237E+08",
    "AbsEntropy": "427000",
    "HeatOfFusionAtMeltingPoint": "1.118E+07",
    "MatthiasCopemanC1": "1.1748",
    "HeatOfCombustion": "-4.095E+09",
    "SolidDensity": {
        "eqno": "2",
        "A": "9.8299",
        "B": "-0.0059994",
        "C": "0",
        "D": "0",
        "E": "0",
        "Tmin": "81.92",
        "Tmax": "204.81"
    },
    "LiquidDensity": {
        "eqno": "105",
        "A": "0.013793",
        "B": "0.039842",
        "C": "582",
        "D": "0.095675",
        "Tmin": "204.81",
        "Tmax": "576"
    },
    "VaporPressure": {
        "eqno": "101",
        "A": "107.12",
        "B": "-8385.7",
        "C": "-12.681",
        "D": "0.0000089823",
        "E": "2",
        "Tmin": "204.81",
        "Tmax": "580"
    },
    "HeatOfVaporization": {
        "eqno": "106",
        "A": "8.205456E+07",
        "B": "3.802881",
        "C": "-9.83224",
        "D": "10.38407",
        "E": "-3.829124",
        "Tmin": "204.81",
        "Tmax": "576"
    },
    "SolidHeatCapacityCp": {
        "eqno": "100",
        "A": "-4606.3",
        "B": "1087.6",
        "C": "3.3297",
        "D": "-0.060174",
        "E": "0.00019999",
        "Tmin": "20",
        "Tmax": "204.81"
    },
    "LiquidHeatCapacityCp": {
        "eqno": "16",
        "A": "180230",
        "B": "-51.129",
        "C": "8.6687",
        "D": "0.010407",
        "E": "-0.0000076786",
        "Tmin": "204.81",
        "Tmax": "410"
    },
    "IdealGasHeatCapacityCp": {
        "eqno": "16",
        "A": "60064",
        "B": "-502.12",
        "C": "13.055",
        "D": "0.00012498",
        "E": "-3.7343E-08",
        "Tmin": "204.81",
        "Tmax": "1500"
    },
    "SecondVirialCoefficient": {
        "eqno": "104",
        "A": "0.26243",
        "B": "-290.37",
        "C": "-61.044",
        "D": "-22979",
        "E": "26222",
        "Tmin": "288",
        "Tmax": "1842"
    },
    "LiquidViscosity": {
        "eqno": "101",
        "A": "-5.6405",
        "B": "1129.7",
        "C": "-1.0122",
        "D": "0.0000027665",
        "E": "2",
        "Tmin": "204.81",
        "Tmax": "473"
    },
    "VaporViscosity": {
        "eqno": "102",
        "A": "1.7015E-07",
        "B": "0.70572",
        "C": "193.2",
        "D": "-7481.9",
        "Tmin": "204.81",
        "Tmax": "1000"
    },
    "LiquidThermalConductivity": {
        "eqno": "16",
        "A": "-0.11955",
        "B": "20.681",
        "C": "-1.3034",
        "D": "0.0000051067",
        "E": "-0.0000013764",
        "Tmin": "172.8",
        "Tmax": "460"
    },
    "VaporThermalConductivity": {
        "eqno": "102",
        "A": "-9.5076",
        "B": "-0.0072136",
        "C": "2380.8",
        "D": "-7.251E+07",
        "Tmin": "204.81",
        "Tmax": "1000"
    },
    "SurfaceTension": {
        "eqno": "16",
        "A": "-0.0095536",
        "B": "69.06",
        "C": "-3.5576",
        "D": "0.0014554",
        "E": "-0.0000061411",
        "Tmin": "204.81",
        "Tmax": "576"
    },
    "RPPHeatCapacityCp": {
        "eqno": "4",
        "A": "-36824",
        "B": "754.57",
        "C": "-0.45548",
        "D": "0.00010732",
        "Tmin": "204.81",
        "Tmax": "1500"
    },
    "AntoineVaporPressure": {
        "eqno": "10",
        "A": "21.12",
        "B": "3193.7",
        "C": "-64.256",
        "Tmin": "350",
        "Tmax": "520"
    },
    "LiquidViscosityRPS": {
        "eqno": "12",
        "A": "-2.6441",
        "B": "-0.015251",
        "Tmin": "204.81",
        "Tmax": "397.55"
    },
    "COSTALDVolume": "0.434469",
    "DiameterLJ": "6.949942E-10",
    "EnergyLJ": "305.9995",
    "RacketParameter": "0.280468",
    "FullerVolume": "133.85",
    "MatthiasCopemanC2": "-0.68836",
    "Parachor": "0.0550018",
    "SpecificGravity": "0.724326",
    "Charge": "0",
    "CostaldAcentricFactor": "0.404427",
    "WilsonVolume": "0.142561",
    "UniquacR": "5.0493",
    "UniquacQ": "4.568",
    "MatthiasCopemanC3": "0.95543",
    "ChaoSeaderAcentricFactor": "0.404427",
    "ChaoSeaderSolubilityParameter": "16330",
    "ChaoSeaderLiquidVolume": "0.142561",
    "Asog": {
        "group": "1"
    },
    "CAS": "565-80-0",
    "Smiles": "CC(C)C(=O)C(C)C"
}