{
    "LibraryIndex": "1743",
    "CompoundID": "Diisopropylamine",
    "StructureFormula": "((CH3)2CH)2NH",
    "Family": "35",
    "CriticalTemperature": "522.15",
    "CriticalPressure": "3200000",
    "CriticalVolume": "0.031",
    "CriticalCompressibility": "0.308",
    "NormalBoilingPointTemperature": "357.05",
    "NormalMeltingPointTemperature": "176.85",
    "TriplePointTemperature": "176.85",
    "TriplePointPressure": "0.00447237",
    "MolecularWeight": "101.19",
    "LiquidVolumeAtNormalBoilingPoint": "0.141919",
    "AcentricityFactor": "0.388315",
    "RadiusOfGyration": "3.806E-10",
    "SolubilityParameter": "15060",
    "VanDerWaalsVolume": "0.07632",
    "VanDerWaalsArea": "1.061E+09",
    "HeatOfFormation": "-1.5E+08",
    "GibbsEnergyOfFormation": "6.42E+07",
    "AbsEntropy": "412000",
    "HeatOfFusionAtMeltingPoint": "6530000",
    "MatthiasCopemanC1": "0.98503",
    "HeatOfCombustion": "-3.99E+09",
    "SolidDensity": {
        "eqno": "2",
        "A": "10.219",
        "B": "-0.0064246",
        "C": "0",
        "D": "0",
        "E": "0",
        "Tmin": "70.74",
        "Tmax": "176.85"
    },
    "LiquidDensity": {
        "eqno": "105",
        "A": "0.72754",
        "B": "0.27918",
        "C": "522.15",
        "D": "0.29458",
        "Tmin": "176.85",
        "Tmax": "504.88"
    },
    "VaporPressure": {
        "eqno": "101",
        "A": "237.36",
        "B": "-12403",
        "C": "-33.276",
        "D": "0.000035165",
        "E": "2",
        "Tmin": "176.85",
        "Tmax": "523.1"
    },
    "HeatOfVaporization": {
        "eqno": "106",
        "A": "8.537039E+07",
        "B": "-2.459337",
        "C": "14.73933",
        "D": "-19.70849",
        "E": "7.844199",
        "Tmin": "176.85",
        "Tmax": "504.88"
    },
    "SolidHeatCapacityCp": {
        "eqno": "1",
        "A": "197480",
        "Tmin": "0",
        "Tmax": "522.15"
    },
    "LiquidHeatCapacityCp": {
        "eqno": "16",
        "A": "150380",
        "B": "276.56",
        "C": "5.7411",
        "D": "0.021881",
        "E": "-0.000021998",
        "Tmin": "275",
        "Tmax": "357.05"
    },
    "IdealGasHeatCapacityCp": {
        "eqno": "16",
        "A": "61641",
        "B": "-432.93",
        "C": "12.839",
        "D": "0.00037342",
        "E": "-1.4329E-07",
        "Tmin": "273",
        "Tmax": "1500"
    },
    "SecondVirialCoefficient": {
        "eqno": "104",
        "A": "0.23056",
        "B": "-237.06",
        "C": "-36.183",
        "D": "970.06",
        "E": "-9593.3",
        "Tmin": "261.55",
        "Tmax": "2000"
    },
    "LiquidViscosity": {
        "eqno": "101",
        "A": "-7.0105",
        "B": "766.59",
        "C": "-0.57101",
        "D": "-0.0000016173",
        "E": "2",
        "Tmin": "250",
        "Tmax": "422"
    },
    "VaporViscosity": {
        "eqno": "102",
        "A": "5.4462E-07",
        "B": "0.56686",
        "C": "334.62",
        "D": "-4787.5",
        "Tmin": "357.05",
        "Tmax": "1000"
    },
    "LiquidThermalConductivity": {
        "eqno": "16",
        "A": "0.046488",
        "B": "-113.84",
        "C": "-0.63846",
        "D": "-0.0065631",
        "E": "0.0000029442",
        "Tmin": "176.85",
        "Tmax": "357.05"
    },
    "VaporThermalConductivity": {
        "eqno": "102",
        "A": "0.00048482",
        "B": "0.81453",
        "C": "349.64",
        "D": "151910",
        "Tmin": "176.85",
        "Tmax": "1000"
    },
    "SurfaceTension": {
        "eqno": "16",
        "A": "-0.007975",
        "B": "58.206",
        "C": "-3.5469",
        "D": "0.0016772",
        "E": "-0.0000085096",
        "Tmin": "176.85",
        "Tmax": "504.88"
    },
    "RPPHeatCapacityCp": {
        "eqno": "4",
        "A": "-15354",
        "B": "697.81",
        "C": "-0.39592",
        "D": "0.000082987",
        "Tmin": "273",
        "Tmax": "1500"
    },
    "AntoineVaporPressure": {
        "eqno": "10",
        "A": "20.374",
        "B": "2622.7",
        "C": "-60.838",
        "Tmin": "313.77",
        "Tmax": "468.43"
    },
    "LiquidViscosityRPS": {
        "eqno": "12",
        "A": "-4.4791",
        "B": "-0.011177",
        "Tmin": "250",
        "Tmax": "357.05"
    },
    "COSTALDVolume": "0.41328",
    "DiameterLJ": "2.408637E-10",
    "EnergyLJ": "491.4633",
    "RacketParameter": "0.282376",
    "FullerVolume": "134.59",
    "MatthiasCopemanC2": "0",
    "Parachor": "0.0523754",
    "SpecificGravity": "0.722239",
    "Charge": "0",
    "CostaldAcentricFactor": "0.388315",
    "WilsonVolume": "0.1",
    "UniquacR": "5.0308",
    "UniquacQ": "4.244",
    "MatthiasCopemanC3": "0",
    "UnifacVLE": {
        "group": "1"
    },
    "Asog": {
        "group": "1"
    },
    "Umr": {
        "group": "1"
    },
    "ModifiedUnifac": {
        "group": "1"
    },
    "CAS": "108-18-9",
    "Smiles": "CC(C)NC(C)C"
}