{
    "LibraryIndex": "1828",
    "CompoundID": "Dimethyl disulfide",
    "StructureFormula": "CH3SSCH3",
    "Family": "42",
    "CriticalTemperature": "606",
    "CriticalPressure": "5360000",
    "CriticalVolume": "0.252",
    "CriticalCompressibility": "0.264",
    "NormalBoilingPointTemperature": "382.9",
    "NormalMeltingPointTemperature": "188.44",
    "TriplePointTemperature": "188.44",
    "TriplePointPressure": "0.207156",
    "MolecularWeight": "94.19904",
    "LiquidVolumeAtNormalBoilingPoint": "0.0890926",
    "AcentricityFactor": "0.266353",
    "RadiusOfGyration": "2.942E-10",
    "SolubilityParameter": "20060",
    "DipoleMoment": "6.57E-30",
    "VanDerWaalsVolume": "0.05004",
    "VanDerWaalsArea": "7.25E+08",
    "HeatOfFormation": "-2.35978E+07",
    "GibbsEnergyOfFormation": "1.53553E+07",
    "AbsEntropy": "336686",
    "HeatOfFusionAtMeltingPoint": "9192000",
    "MatthiasCopemanC1": "0.88",
    "HeatOfCombustion": "-2.04376E+09",
    "SolidDensity": {
        "eqno": "2",
        "A": "15.732",
        "B": "-0.0091284",
        "C": "0",
        "D": "0",
        "E": "0",
        "Tmin": "75.38",
        "Tmax": "188.44"
    },
    "LiquidDensity": {
        "eqno": "105",
        "A": "1.0289",
        "B": "0.26919",
        "C": "615.01",
        "D": "0.29771",
        "Tmin": "188.44",
        "Tmax": "615"
    },
    "VaporPressure": {
        "eqno": "101",
        "A": "81.238",
        "B": "-6951.5",
        "C": "-8.8055",
        "D": "0.0000055663",
        "E": "2",
        "Tmin": "188.44",
        "Tmax": "615"
    },
    "HeatOfVaporization": {
        "eqno": "106",
        "A": "5.473869E+07",
        "B": "0.511523",
        "C": "0.456682",
        "D": "-1.152343",
        "E": "0.579651",
        "Tmin": "188.43",
        "Tmax": "592.55"
    },
    "SolidHeatCapacityCp": {
        "eqno": "100",
        "A": "-15381",
        "B": "1506.8",
        "C": "-8.7556",
        "D": "0.024969",
        "E": "-0.000016391",
        "Tmin": "18.3",
        "Tmax": "181.17"
    },
    "LiquidHeatCapacityCp": {
        "eqno": "16",
        "A": "143050",
        "B": "-21950",
        "C": "190.58",
        "D": "-0.51509",
        "E": "0.00050194",
        "Tmin": "188.44",
        "Tmax": "360"
    },
    "IdealGasHeatCapacityCp": {
        "eqno": "16",
        "A": "74603",
        "B": "-691.43",
        "C": "12.21",
        "D": "-0.0000028522",
        "E": "-1.9217E-08",
        "Tmin": "200",
        "Tmax": "1500"
    },
    "SecondVirialCoefficient": {
        "eqno": "104",
        "A": "-0.27433",
        "B": "338.25",
        "C": "-157.11",
        "D": "213460",
        "E": "-611370",
        "Tmin": "307.5",
        "Tmax": "1500"
    },
    "LiquidViscosity": {
        "eqno": "101",
        "A": "-11.014",
        "B": "1197",
        "C": "-0.085106",
        "D": "2.8649E-07",
        "E": "2",
        "Tmin": "188.43",
        "Tmax": "506"
    },
    "VaporViscosity": {
        "eqno": "102",
        "A": "7.8221E-08",
        "B": "0.86272",
        "C": "109.17",
        "D": "-8364.4",
        "Tmin": "188.43",
        "Tmax": "1000"
    },
    "LiquidThermalConductivity": {
        "eqno": "16",
        "A": "-0.035195",
        "B": "-0.25311",
        "C": "-1.4287",
        "D": "-0.00064815",
        "E": "-0.0000012773",
        "Tmin": "188.43",
        "Tmax": "382.9"
    },
    "VaporThermalConductivity": {
        "eqno": "102",
        "A": "0.00022814",
        "B": "0.8901",
        "C": "687.63",
        "D": "4695.8",
        "Tmin": "188.44",
        "Tmax": "1000"
    },
    "SurfaceTension": {
        "eqno": "16",
        "A": "-0.012015",
        "B": "66.606",
        "C": "-3.1743",
        "D": "0.0012491",
        "E": "-0.0000059034",
        "Tmin": "188.43",
        "Tmax": "592.55"
    },
    "RPPHeatCapacityCp": {
        "eqno": "4",
        "A": "38217",
        "B": "216.65",
        "C": "-0.095516",
        "D": "0.00001376",
        "Tmin": "200",
        "Tmax": "1500"
    },
    "RelativeStaticPermittivity": {
        "eqno": "120",
        "A": "-8.22",
        "B": "-4800",
        "C": "-28.8",
        "Tmin": "280",
        "Tmax": "450"
    },
    "AntoineVaporPressure": {
        "eqno": "10",
        "A": "21.015",
        "B": "3141.5",
        "C": "-51.826",
        "Tmin": "364.43",
        "Tmax": "525.2"
    },
    "LiquidViscosityRPS": {
        "eqno": "12",
        "A": "-2.4373",
        "B": "-0.01633",
        "Tmin": "188.43",
        "Tmax": "382.9"
    },
    "COSTALDVolume": "0.266045",
    "DiameterLJ": "5.827118E-10",
    "EnergyLJ": "327.4613",
    "RacketParameter": "0.264",
    "FullerVolume": "74.969",
    "MatthiasCopemanC2": "0",
    "Parachor": "0.0377667",
    "SpecificGravity": "1.06743",
    "Charge": "0",
    "CostaldAcentricFactor": "0.266353",
    "WilsonVolume": "0.0890926",
    "UniquacR": "3.226",
    "UniquacQ": "2.736",
    "MatthiasCopemanC3": "0",
    "ChaoSeaderAcentricFactor": "0.205916",
    "ChaoSeaderSolubilityParameter": "20060",
    "ChaoSeaderLiquidVolume": "0.0890926",
    "UnifacVLE": {
        "group": "2"
    },
    "Umr": {
        "group": "2"
    },
    "ModifiedUnifac": {
        "group": "1"
    },
    "CAS": "624-92-0",
    "Smiles": "CSSC"
}