{
    "LibraryIndex": "2391",
    "CompoundID": "Dimethyl carbonate",
    "StructureFormula": "(CH3O)2CO",
    "Family": "45",
    "CriticalTemperature": "557",
    "CriticalPressure": "4800000",
    "CriticalVolume": "0.25163",
    "CriticalCompressibility": "0.261",
    "NormalBoilingPointTemperature": "363.24",
    "NormalMeltingPointTemperature": "276.15",
    "TriplePointTemperature": "273.15",
    "TriplePointPressure": "1825.53",
    "MolecularWeight": "90.07794",
    "LiquidVolumeAtNormalBoilingPoint": "0.084825",
    "AcentricityFactor": "0.337",
    "RadiusOfGyration": "3.247E-10",
    "SolubilityParameter": "20240",
    "DipoleMoment": "3.0E-30",
    "VanDerWaalsVolume": "0.04624",
    "VanDerWaalsArea": "7.04E+08",
    "HeatOfFormation": "-5.701E+08",
    "GibbsEnergyOfFormation": "-4.524E+08",
    "AbsEntropy": "321600",
    "HeatOfFusionAtMeltingPoint": "1.2E+07",
    "MatthiasCopemanC1": "0.98328",
    "HeatOfCombustion": "-1.295E+09",
    "SolidDensity": {
        "eqno": "100",
        "A": "15.551",
        "B": "-0.0071164",
        "C": "0",
        "D": "0",
        "E": "0",
        "Tmin": "109.26",
        "Tmax": "273.15"
    },
    "LiquidDensity": {
        "eqno": "105",
        "A": "0.0073625",
        "B": "0.022214",
        "C": "557",
        "D": "0.083013",
        "Tmin": "273.15",
        "Tmax": "548"
    },
    "VaporPressure": {
        "eqno": "101",
        "A": "127.2975",
        "B": "-8353.984",
        "C": "-16.14514",
        "D": "0.0000181933",
        "E": "2",
        "Tmin": "273.15",
        "Tmax": "548"
    },
    "HeatOfVaporization": {
        "eqno": "106",
        "A": "5.291764E+07",
        "B": "1.146922",
        "C": "-2.489366",
        "D": "2.898325",
        "E": "-1.182726",
        "Tmin": "273.15",
        "Tmax": "548"
    },
    "SolidHeatCapacityCp": {
        "eqno": "102",
        "A": "1690",
        "B": "0.79267",
        "C": "0",
        "D": "0",
        "Tmin": "50",
        "Tmax": "273.15"
    },
    "LiquidHeatCapacityCp": {
        "eqno": "16",
        "A": "170430",
        "B": "-2560.3",
        "C": "-9.9628",
        "D": "-0.012169",
        "E": "0.000014736",
        "Tmin": "292.95",
        "Tmax": "361.15"
    },
    "IdealGasHeatCapacityCp": {
        "eqno": "16",
        "A": "62577",
        "B": "-594.2",
        "C": "12.53",
        "D": "-0.000022352",
        "E": "-2.2803E-08",
        "Tmin": "273",
        "Tmax": "1500"
    },
    "SecondVirialCoefficient": {
        "eqno": "104",
        "A": "0.17199",
        "B": "-186.08",
        "C": "-30.494",
        "D": "-4242.1",
        "E": "2158.1",
        "Tmin": "274",
        "Tmax": "1500"
    },
    "LiquidViscosity": {
        "eqno": "101",
        "A": "-235.18",
        "B": "9633.9",
        "C": "34.904",
        "D": "-0.000038795",
        "E": "2",
        "Tmin": "273.15",
        "Tmax": "438.4"
    },
    "VaporViscosity": {
        "eqno": "102",
        "A": "3.5376E-07",
        "B": "0.64846",
        "C": "244.72",
        "D": "-7103.7",
        "Tmin": "273.15",
        "Tmax": "1000"
    },
    "LiquidThermalConductivity": {
        "eqno": "16",
        "A": "0.011223",
        "B": "-183.44",
        "C": "0.22279",
        "D": "-0.0056614",
        "E": "0.0000021056",
        "Tmin": "273.15",
        "Tmax": "363.4"
    },
    "VaporThermalConductivity": {
        "eqno": "102",
        "A": "0.00023689",
        "B": "0.89541",
        "C": "568.87",
        "D": "19356",
        "Tmin": "273.15",
        "Tmax": "1000"
    },
    "SurfaceTension": {
        "eqno": "116",
        "A": "0",
        "B": "0",
        "C": "0",
        "D": "0.0365301",
        "E": "0.0365301",
        "Tmin": "276.15",
        "Tmax": "557"
    },
    "RPPHeatCapacityCp": {
        "eqno": "4",
        "A": "4533.1",
        "B": "384.59",
        "C": "-0.2325",
        "D": "0.000052013",
        "Tmin": "273",
        "Tmax": "1500"
    },
    "RelativeStaticPermittivity": {
        "eqno": "120",
        "A": "-2.258",
        "B": "-1545",
        "C": "-9.27",
        "Tmin": "280",
        "Tmax": "450"
    },
    "AntoineVaporPressure": {
        "eqno": "10",
        "A": "21.715",
        "B": "3264.5",
        "C": "-42.989",
        "Tmin": "335.2",
        "Tmax": "490.14"
    },
    "LiquidViscosityRPS": {
        "eqno": "12",
        "A": "-5.3228",
        "B": "-0.0072352",
        "Tmin": "273.15",
        "Tmax": "438.4"
    },
    "COSTALDVolume": "0.245512",
    "DiameterLJ": "5.904691E-10",
    "EnergyLJ": "288.8513",
    "RacketParameter": "0.261",
    "FullerVolume": "79.89",
    "MatthiasCopemanC2": "0",
    "Parachor": "0.0350959",
    "SpecificGravity": "1.075345",
    "Charge": "0",
    "CostaldAcentricFactor": "0.337",
    "WilsonVolume": "0.084825",
    "UniquacR": "3.3822",
    "UniquacQ": "3.086",
    "MatthiasCopemanC3": "0",
    "ChaoSeaderAcentricFactor": "0.337",
    "ChaoSeaderSolubilityParameter": "20240",
    "ChaoSeaderLiquidVolume": "0.084825",
    "UnifacVLE": {
        "group": "1"
    },
    "Asog": {
        "group": "1"
    },
    "Umr": {
        "group": "1"
    },
    "CAS": "616-38-6",
    "Smiles": "COC(=O)OC"
}