{
    "LibraryIndex": "1401",
    "CompoundID": "Dimethyl ether",
    "StructureFormula": "CH3OCH3",
    "Family": "61",
    "CriticalTemperature": "400.1",
    "CriticalPressure": "5400000",
    "CriticalVolume": "0.17",
    "CriticalCompressibility": "0.276",
    "NormalBoilingPointTemperature": "248.31",
    "NormalMeltingPointTemperature": "131.66",
    "TriplePointTemperature": "131.65",
    "TriplePointPressure": "3.04959",
    "MolecularWeight": "46.06844",
    "LiquidVolumeAtNormalBoilingPoint": "0.06907",
    "AcentricityFactor": "0.191",
    "RadiusOfGyration": "2.154E-10",
    "SolubilityParameter": "15120",
    "DipoleMoment": "4.34E-30",
    "VanDerWaalsVolume": "0.03104",
    "VanDerWaalsArea": "4.84E+08",
    "HeatOfFormation": "-1.841E+08",
    "GibbsEnergyOfFormation": "-1.128E+08",
    "AbsEntropy": "266700",
    "HeatOfFusionAtMeltingPoint": "4937000",
    "MatthiasCopemanC1": "0.77572",
    "HeatOfCombustion": "-1.3284E+09",
    "SolidDensity": {
        "eqno": "2",
        "A": "24.059",
        "B": "-0.020492",
        "Tmin": "52.66",
        "Tmax": "131.65"
    },
    "LiquidDensity": {
        "eqno": "105",
        "A": "1.4889",
        "B": "0.26123",
        "C": "400.1",
        "D": "0.27948",
        "Tmin": "131.65",
        "Tmax": "400.1"
    },
    "VaporPressure": {
        "eqno": "101",
        "A": "50.32175",
        "B": "-3631.453",
        "C": "-4.444735",
        "D": "5.290757E-06",
        "E": "2",
        "Tmin": "131.65",
        "Tmax": "400.1"
    },
    "HeatOfVaporization": {
        "eqno": "106",
        "A": "3.8521E+07",
        "B": "2.2845",
        "C": "-5.7518",
        "D": "6.5695",
        "E": "-2.6976",
        "Tmin": "131.65",
        "Tmax": "400.1"
    },
    "SolidHeatCapacityCp": {
        "eqno": "100",
        "A": "-13616",
        "B": "1241.9",
        "C": "-7.8805",
        "D": "0.023826",
        "E": "0.0000089126",
        "Tmin": "20",
        "Tmax": "131.64"
    },
    "LiquidHeatCapacityCp": {
        "eqno": "16",
        "A": "97754",
        "B": "353.35",
        "C": "-1.896",
        "D": "0.040999",
        "E": "-0.000017816",
        "Tmin": "131.64",
        "Tmax": "250"
    },
    "IdealGasHeatCapacityCp": {
        "eqno": "16",
        "A": "37573.94",
        "B": "-346.059",
        "C": "11.12596",
        "D": "0.00118434",
        "E": "-4.086847E-07",
        "Tmin": "80",
        "Tmax": "1500"
    },
    "SecondVirialCoefficient": {
        "eqno": "104",
        "A": "0.1196",
        "B": "-114.27",
        "C": "-4.7652",
        "D": "-552.86",
        "E": "923.94",
        "Tmin": "200",
        "Tmax": "1500"
    },
    "LiquidViscosity": {
        "eqno": "101",
        "A": "-10.661",
        "B": "449.83",
        "C": "0.0072727",
        "D": "-3.6906E-08",
        "E": "2",
        "Tmin": "131.65",
        "Tmax": "248.31"
    },
    "VaporViscosity": {
        "eqno": "102",
        "A": "0.0000027281",
        "B": "0.3952",
        "C": "534.12",
        "D": "2319",
        "Tmin": "131.65",
        "Tmax": "1000"
    },
    "LiquidThermalConductivity": {
        "eqno": "16",
        "A": "-0.15344",
        "B": "-11.847",
        "C": "-0.56462",
        "D": "-0.0022104",
        "E": "5.6048E-07",
        "Tmin": "120.03",
        "Tmax": "320.03"
    },
    "VaporThermalConductivity": {
        "eqno": "102",
        "A": "0.059968",
        "B": "0.26671",
        "C": "1018.3",
        "D": "1098900",
        "Tmin": "131.65",
        "Tmax": "1500"
    },
    "SurfaceTension": {
        "eqno": "16",
        "A": "-0.0093353",
        "B": "46.031",
        "C": "-3.4828",
        "D": "0.0024176",
        "E": "-0.000014319",
        "Tmin": "131.65",
        "Tmax": "400.1"
    },
    "RPPHeatCapacityCp": {
        "eqno": "100",
        "A": "36259",
        "B": "50.469",
        "C": "0.24104",
        "D": "-0.00029774",
        "E": "1.0659E-07",
        "Tmin": "100",
        "Tmax": "1000"
    },
    "RelativeStaticPermittivity": {
        "eqno": "4",
        "A": "14.87198",
        "B": "-0.0266292",
        "C": "-0.0000434922",
        "D": "0.0000000821",
        "Tmin": "155",
        "Tmax": "510"
    },
    "AntoineVaporPressure": {
        "eqno": "10",
        "A": "21.354",
        "B": "2237.8",
        "C": "-20.775",
        "Tmin": "241.96",
        "Tmax": "357.71"
    },
    "LiquidViscosityRPS": {
        "eqno": "13",
        "A": "-3.0837",
        "B": "-0.041241",
        "C": "0.000073668",
        "Tmin": "131.65",
        "Tmax": "248.31"
    },
    "COSTALDVolume": "0.18366",
    "DiameterLJ": "4.21E-10",
    "EnergyLJ": "432",
    "FullerVolume": "51.77",
    "MatthiasCopemanC2": "0.04503",
    "Parachor": "0.0233",
    "SpecificGravity": "0.670302",
    "Charge": "0",
    "CostaldAcentricFactor": "0.1972",
    "WilsonVolume": "0.0703107",
    "UniquacR": "2.0461",
    "UniquacQ": "1.936",
    "MatthiasCopemanC3": "-0.17891",
    "ChaoSeaderAcentricFactor": "0.2",
    "ChaoSeaderSolubilityParameter": "15212.1",
    "ChaoSeaderLiquidVolume": "0.0703107",
    "UnifacVLE": {
        "group": "1"
    },
    "UnifacLLE": {
        "group": "1"
    },
    "Asog": {
        "group": "1"
    },
    "Umr": {
        "group": "1"
    },
    "ModifiedUnifac": {
        "group": "1"
    },
    "CAS": "115-10-6",
    "Smiles": "COC"
}