{
    "LibraryIndex": "404",
    "CompoundID": "Dimethylacetylene",
    "StructureFormula": "CH3CCCH3",
    "Family": "15",
    "CriticalTemperature": "473.2",
    "CriticalPressure": "4870000",
    "CriticalVolume": "0.221",
    "CriticalCompressibility": "0.274",
    "NormalBoilingPointTemperature": "300.13",
    "NormalMeltingPointTemperature": "240.91",
    "TriplePointTemperature": "240.91",
    "TriplePointPressure": "6121.21",
    "MolecularWeight": "54.09044",
    "LiquidVolumeAtNormalBoilingPoint": "0.0788997",
    "AcentricityFactor": "0.238542",
    "RadiusOfGyration": "2.519E-10",
    "SolubilityParameter": "17480",
    "DipoleMoment": "1.32E-29",
    "VanDerWaalsVolume": "0.04344",
    "VanDerWaalsArea": "6.2E+08",
    "HeatOfFormation": "1.457E+08",
    "GibbsEnergyOfFormation": "1.849E+08",
    "AbsEntropy": "283300",
    "HeatOfFusionAtMeltingPoint": "9234000",
    "MatthiasCopemanC1": "0.843411",
    "HeatOfCombustion": "-2.4189E+09",
    "SolidDensity": {
        "eqno": "2",
        "A": "20.891",
        "B": "1.4333E-16",
        "Tmin": "0",
        "Tmax": "9.5"
    },
    "LiquidDensity": {
        "eqno": "105",
        "A": "1.1717",
        "B": "0.25895",
        "C": "473.2",
        "D": "0.27289",
        "Tmin": "240.91",
        "Tmax": "460.97"
    },
    "VaporPressure": {
        "eqno": "101",
        "A": "66.56107",
        "B": "-4998.053",
        "C": "-6.834282",
        "D": "6.682052E-06",
        "E": "2",
        "Tmin": "235.35",
        "Tmax": "473.2"
    },
    "HeatOfVaporization": {
        "eqno": "106",
        "A": "4761730",
        "B": "-11.5565",
        "C": "30.6629",
        "D": "-31.89366",
        "E": "12.67797",
        "Tmin": "240.91",
        "Tmax": "483.15"
    },
    "SolidHeatCapacityCp": {
        "eqno": "100",
        "A": "-22058",
        "B": "1434.2",
        "C": "-6.035",
        "D": "-0.0026008",
        "E": "0.00007651",
        "Tmin": "30",
        "Tmax": "140"
    },
    "LiquidHeatCapacityCp": {
        "eqno": "16",
        "A": "116500",
        "B": "35.116",
        "C": "5.8634",
        "D": "0.0049877",
        "E": "0.000013087",
        "Tmin": "240.91",
        "Tmax": "416.29"
    },
    "IdealGasHeatCapacityCp": {
        "eqno": "16",
        "A": "62226",
        "B": "-826.04",
        "C": "12.513",
        "D": "-0.0002013",
        "E": "4.9424E-08",
        "Tmin": "200",
        "Tmax": "1500"
    },
    "SecondVirialCoefficient": {
        "eqno": "104",
        "A": "0.1305",
        "B": "-139.22",
        "C": "-10.692",
        "D": "-76.88",
        "E": "-253.62",
        "Tmin": "244",
        "Tmax": "1500"
    },
    "LiquidViscosity": {
        "eqno": "101",
        "A": "-0.045622",
        "B": "305.04",
        "C": "-1.6582",
        "D": "-4.749E-08",
        "E": "2",
        "Tmin": "240.91",
        "Tmax": "400"
    },
    "VaporViscosity": {
        "eqno": "102",
        "A": "0.0000021802",
        "B": "0.39407",
        "C": "508.41",
        "D": "3758",
        "Tmin": "173.15",
        "Tmax": "1000"
    },
    "LiquidThermalConductivity": {
        "eqno": "16",
        "A": "0.0074431",
        "B": "-154.13",
        "C": "-0.25098",
        "D": "-0.0046292",
        "E": "-7.3662E-08",
        "Tmin": "240.91",
        "Tmax": "428.44"
    },
    "VaporThermalConductivity": {
        "eqno": "102",
        "A": "0.00021497",
        "B": "0.91998",
        "C": "214.54",
        "D": "130500",
        "Tmin": "240.91",
        "Tmax": "1000"
    },
    "SurfaceTension": {
        "eqno": "16",
        "A": "-0.0028208",
        "B": "1162.8",
        "C": "-14.995",
        "D": "0.042251",
        "E": "-0.000058944",
        "Tmin": "240.91",
        "Tmax": "488.68"
    },
    "RPPHeatCapacityCp": {
        "eqno": "4",
        "A": "24704",
        "B": "201.33",
        "C": "-0.063295",
        "D": "0.0000018433",
        "Tmin": "200",
        "Tmax": "1500"
    },
    "AntoineVaporPressure": {
        "eqno": "10",
        "A": "21.304",
        "B": "2609.4",
        "C": "-33.287",
        "Tmin": "286.57",
        "Tmax": "424.3"
    },
    "LiquidViscosityRPS": {
        "eqno": "13",
        "A": "-3.9474",
        "B": "-0.021183",
        "C": "0.000020132",
        "Tmin": "240.91",
        "Tmax": "371"
    },
    "COSTALDVolume": "0.230469",
    "DiameterLJ": "5.334271E-10",
    "EnergyLJ": "292.3209",
    "FullerVolume": "77.46",
    "MatthiasCopemanC2": "0",
    "Parachor": "0.0302",
    "SpecificGravity": "0.695843",
    "Charge": "0",
    "CostaldAcentricFactor": "0.238542",
    "WilsonVolume": "0.0789036",
    "UniquacR": "2.8635",
    "UniquacQ": "2.48",
    "ApiSrkS2": "-0.109294",
    "MatthiasCopemanC3": "0",
    "ChaoSeaderAcentricFactor": "0.1301",
    "ChaoSeaderSolubilityParameter": "17463.7",
    "ChaoSeaderLiquidVolume": "0.0789036",
    "UnifacVLE": {
        "group": "1"
    },
    "Asog": {
        "group": "1"
    },
    "Umr": {
        "group": "1"
    },
    "ModifiedUnifac": {
        "group": "1"
    },
    "CAS": "503-17-3",
    "Smiles": "CC#CC"
}