{
    "LibraryIndex": "1820",
    "CompoundID": "Dimethyl sulfide",
    "StructureFormula": "(CH3)2S",
    "Family": "42",
    "CriticalTemperature": "503",
    "CriticalPressure": "5530000",
    "CriticalVolume": "0.201",
    "CriticalCompressibility": "0.266",
    "NormalBoilingPointTemperature": "310.48",
    "NormalMeltingPointTemperature": "174.88",
    "TriplePointTemperature": "174.88",
    "TriplePointPressure": "7.86415",
    "MolecularWeight": "62.13404",
    "LiquidVolumeAtNormalBoilingPoint": "0.07377",
    "AcentricityFactor": "0.19",
    "RadiusOfGyration": "2.374E-10",
    "SolubilityParameter": "18530",
    "DipoleMoment": "5.0E-30",
    "VanDerWaalsVolume": "0.03814",
    "VanDerWaalsArea": "5.54E+08",
    "HeatOfFormation": "-3.724E+07",
    "GibbsEnergyOfFormation": "7302000",
    "AbsEntropy": "285850",
    "HeatOfFusionAtMeltingPoint": "7984700",
    "MatthiasCopemanC1": "0.87394",
    "HeatOfCombustion": "-1.7443E+09",
    "SolidDensity": {
        "eqno": "2",
        "A": "19.669",
        "B": "-0.01188",
        "Tmin": "69.95",
        "Tmax": "174.88"
    },
    "LiquidDensity": {
        "eqno": "105",
        "A": "1.1867",
        "B": "0.25844",
        "C": "503.06",
        "D": "0.24773",
        "Tmin": "174.88",
        "Tmax": "503.05"
    },
    "VaporPressure": {
        "eqno": "101",
        "A": "14.07567",
        "B": "-3435.088",
        "C": "1.598135",
        "D": "-0.0000069451",
        "E": "2",
        "Tmin": "174.88",
        "Tmax": "503.04"
    },
    "HeatOfVaporization": {
        "eqno": "106",
        "A": "5.490637E+07",
        "B": "1.721854",
        "C": "-2.161256",
        "D": "0.932609",
        "E": "-0.0179494",
        "Tmin": "174.88",
        "Tmax": "491.99"
    },
    "SolidHeatCapacityCp": {
        "eqno": "100",
        "A": "-12181",
        "B": "1107.6",
        "C": "-5.0143",
        "D": "0.0082042",
        "E": "0.000012693",
        "Tmin": "15",
        "Tmax": "170"
    },
    "LiquidHeatCapacityCp": {
        "eqno": "16",
        "A": "112410",
        "B": "-20036",
        "C": "201.07",
        "D": "-0.63397",
        "E": "0.0007177",
        "Tmin": "174.88",
        "Tmax": "310.48"
    },
    "IdealGasHeatCapacityCp": {
        "eqno": "16",
        "A": "56893",
        "B": "-682.39",
        "C": "12.01",
        "D": "0.00013748",
        "E": "-5.7442E-08",
        "Tmin": "174.88",
        "Tmax": "1500"
    },
    "SecondVirialCoefficient": {
        "eqno": "104",
        "A": "0.11611",
        "B": "-141.79",
        "C": "-13.232",
        "D": "-216.03",
        "E": "14.289",
        "Tmin": "251.5",
        "Tmax": "1760.5"
    },
    "LiquidViscosity": {
        "eqno": "101",
        "A": "-15.044",
        "B": "992.97",
        "C": "0.60378",
        "D": "0.0000010306",
        "E": "2",
        "Tmin": "225",
        "Tmax": "403"
    },
    "VaporViscosity": {
        "eqno": "102",
        "A": "4.8631E-07",
        "B": "0.62748",
        "C": "355.22",
        "D": "-11800",
        "Tmin": "174.88",
        "Tmax": "1000"
    },
    "LiquidThermalConductivity": {
        "eqno": "16",
        "A": "0.10006",
        "B": "-155.98",
        "C": "-0.57159",
        "D": "-0.0045066",
        "E": "-0.0000087305",
        "Tmin": "174.88",
        "Tmax": "310.48"
    },
    "VaporThermalConductivity": {
        "eqno": "102",
        "A": "0.00026184",
        "B": "0.91507",
        "C": "780.75",
        "D": "-32167",
        "Tmin": "174.88",
        "Tmax": "1000"
    },
    "SurfaceTension": {
        "eqno": "16",
        "A": "-0.021126",
        "B": "18.794",
        "C": "-2.708",
        "D": "-0.00021089",
        "E": "-0.0000043376",
        "Tmin": "174.88",
        "Tmax": "485.77"
    },
    "RPPHeatCapacityCp": {
        "eqno": "100",
        "A": "29392",
        "B": "145.75",
        "C": "0.049554",
        "D": "-0.00013569",
        "E": "5.7869E-08",
        "Tmin": "174.88",
        "Tmax": "1000"
    },
    "RelativeStaticPermittivity": {
        "eqno": "120",
        "A": "-5.185871",
        "B": "-3150",
        "C": "-18.9",
        "Tmin": "274.15",
        "Tmax": "444.15"
    },
    "AntoineVaporPressure": {
        "eqno": "10",
        "A": "21.142",
        "B": "2682.7",
        "C": "-31.19",
        "Tmin": "303.88",
        "Tmax": "451.23"
    },
    "LiquidViscosityRPS": {
        "eqno": "13",
        "A": "-1.3718",
        "B": "-0.037395",
        "C": "0.000048797",
        "Tmin": "225",
        "Tmax": "310.48"
    },
    "COSTALDVolume": "0.20227",
    "DiameterLJ": "5.355323E-10",
    "EnergyLJ": "279.2898",
    "RacketParameter": "0.273888",
    "FullerVolume": "68.56",
    "MatthiasCopemanC2": "-0.85309",
    "Parachor": "0.0291",
    "SpecificGravity": "0.848",
    "Charge": "0",
    "CostaldAcentricFactor": "0.19359",
    "WilsonVolume": "0.0730914",
    "UniquacR": "2.5141",
    "UniquacQ": "2.216",
    "MatthiasCopemanC3": "1.7269",
    "ChaoSeaderAcentricFactor": "0.189279",
    "ChaoSeaderSolubilityParameter": "18513.3",
    "ChaoSeaderLiquidVolume": "0.0730914",
    "UnifacVLE": {
        "group": "1"
    },
    "Umr": {
        "group": "1"
    },
    "ModifiedUnifac": {
        "group": "1"
    },
    "CAS": "75-18-3",
    "Smiles": "CSC"
}