{
    "LibraryIndex": "6863",
    "CompoundID": "Dimethylethanolamine",
    "StructureFormula": "HOCH2CH2N(CH3)2",
    "Family": "68",
    "CriticalTemperature": "571.82",
    "CriticalPressure": "4140000",
    "CriticalVolume": "0.331",
    "CriticalCompressibility": "0.261",
    "NormalBoilingPointTemperature": "404.15",
    "NormalMeltingPointTemperature": "214.15",
    "TriplePointTemperature": "214.15",
    "TriplePointPressure": "0.0376223",
    "MolecularWeight": "89.13624",
    "LiquidVolumeAtNormalBoilingPoint": "0.101094",
    "AcentricityFactor": "0.710963",
    "RadiusOfGyration": "3.46249E-10",
    "SolubilityParameter": "22790",
    "DipoleMoment": "7.37E-30",
    "VanDerWaalsVolume": "0.06017",
    "VanDerWaalsArea": "8.63E+08",
    "HeatOfFormation": "-2.02E+08",
    "GibbsEnergyOfFormation": "-3.64E+07",
    "AbsEntropy": "384000",
    "HeatOfFusionAtMeltingPoint": "0",
    "HeatOfCombustion": "-2.65E+09",
    "SolidDensity": {
        "eqno": "100",
        "A": "13.805",
        "B": "-0.0080578",
        "C": "0",
        "D": "0",
        "E": "0",
        "Tmin": "85.66",
        "Tmax": "214.15"
    },
    "LiquidDensity": {
        "eqno": "105",
        "A": "0.87166",
        "B": "0.26133",
        "C": "571.82",
        "D": "0.28585",
        "Tmin": "214.15",
        "Tmax": "571.82"
    },
    "VaporPressure": {
        "eqno": "101",
        "A": "121.6094",
        "B": "-10451.37",
        "C": "-14.23754",
        "D": "0.000006927",
        "E": "2",
        "Tmin": "214.15",
        "Tmax": "571.82"
    },
    "HeatOfVaporization": {
        "eqno": "106",
        "A": "7.9011E+07",
        "B": "0.56455",
        "C": "-0.031757",
        "D": "-0.28621",
        "E": "0.17191",
        "Tmin": "214.15",
        "Tmax": "571.82"
    },
    "SolidHeatCapacityCp": {
        "eqno": "102",
        "A": "1800",
        "B": "0.79267",
        "C": "0",
        "D": "0",
        "Tmin": "50",
        "Tmax": "214.15"
    },
    "LiquidHeatCapacityCp": {
        "eqno": "16",
        "A": "66692",
        "B": "-55.489",
        "C": "10.897",
        "D": "0.0047237",
        "E": "-0.0000030382",
        "Tmin": "299.91",
        "Tmax": "425.91"
    },
    "IdealGasHeatCapacityCp": {
        "eqno": "16",
        "A": "71203",
        "B": "-582.55",
        "C": "12.891",
        "D": "-0.000082299",
        "E": "3.2172E-08",
        "Tmin": "273",
        "Tmax": "1200"
    },
    "SecondVirialCoefficient": {
        "eqno": "104",
        "A": "0.21155",
        "B": "-189.81",
        "C": "-51.091",
        "D": "-19900",
        "E": "29045",
        "Tmin": "285.91",
        "Tmax": "1500"
    },
    "LiquidViscosity": {
        "eqno": "101",
        "A": "-15.376",
        "B": "3350.8",
        "C": "-0.34232",
        "D": "9.4723E-07",
        "E": "2",
        "Tmin": "214.15",
        "Tmax": "550"
    },
    "VaporViscosity": {
        "eqno": "102",
        "A": "1.2904E-07",
        "B": "0.77955",
        "C": "165.36",
        "D": "-6888.3",
        "Tmin": "214.15",
        "Tmax": "1000"
    },
    "LiquidThermalConductivity": {
        "eqno": "16",
        "A": "-0.083559",
        "B": "-10.945",
        "C": "-0.99458",
        "D": "-0.00097463",
        "E": "-8.1342E-07",
        "Tmin": "214.15",
        "Tmax": "407.15"
    },
    "VaporThermalConductivity": {
        "eqno": "102",
        "A": "0.00023136",
        "B": "0.92757",
        "C": "412.5",
        "D": "95357",
        "Tmin": "214.15",
        "Tmax": "1000"
    },
    "SurfaceTension": {
        "eqno": "16",
        "A": "-0.0127",
        "B": "89.713",
        "C": "-3.389",
        "D": "0.0019204",
        "E": "-0.0000065659",
        "Tmin": "214.15",
        "Tmax": "571.82"
    },
    "RPPHeatCapacityCp": {
        "eqno": "4",
        "A": "-13496",
        "B": "570.3",
        "C": "-0.37223",
        "D": "0.000097254",
        "Tmin": "273",
        "Tmax": "1200"
    },
    "AntoineVaporPressure": {
        "eqno": "10",
        "A": "22.242",
        "B": "3423.1",
        "C": "-87.75",
        "Tmin": "345.92",
        "Tmax": "500.29"
    },
    "LiquidViscosityRPS": {
        "eqno": "12",
        "A": "4.354",
        "B": "-0.033071",
        "Tmin": "214.15",
        "Tmax": "457.46"
    },
    "COSTALDVolume": "0.32159",
    "DiameterLJ": "6.469723E-10",
    "EnergyLJ": "296.5367",
    "RacketParameter": "0.261",
    "FullerVolume": "99.66",
    "Parachor": "0.0423961",
    "SpecificGravity": "0.892",
    "Charge": "0",
    "CostaldAcentricFactor": "0.710963",
    "WilsonVolume": "0.101094",
    "UniquacR": "4.4363",
    "UniquacQ": "4.068",
    "ChaoSeaderAcentricFactor": "0.710963",
    "ChaoSeaderSolubilityParameter": "22790",
    "ChaoSeaderLiquidVolume": "0.101094",
    "UnifacVLE": {
        "group": "1"
    },
    "Asog": {
        "group": "1"
    },
    "Umr": {
        "group": "1"
    },
    "ModifiedUnifac": {
        "group": "1"
    },
    "CAS": "108-01-0",
    "Smiles": "CN(C)CCO"
}