{
    "LibraryIndex": "13125",
    "CompoundID": "DiPhenyl Carbonate",
    "StructureFormula": "(C6H5)2(OCOO)",
    "Family": "45",
    "CriticalTemperature": "795.1034",
    "CriticalPressure": "2796493",
    "CriticalVolume": "0.59685",
    "CriticalCompressibility": "0.251145",
    "NormalBoilingPointTemperature": "572.99",
    "NormalMeltingPointTemperature": "352.15",
    "MolecularWeight": "214.2167",
    "LiquidVolumeAtNormalBoilingPoint": "0.18261",
    "AcentricityFactor": "0.616294",
    "RadiusOfGyration": "4.600808E-10",
    "SolubilityParameter": "18788.28",
    "DipoleMoment": "0",
    "VanDerWaalsVolume": "0.115626",
    "VanDerWaalsArea": "1.4085E+09",
    "HeatOfFormation": "-3.1495E+08",
    "GibbsEnergyOfFormation": "-1.5702E+08",
    "AbsEntropy": "602489.2",
    "HeatOfCombustion": "-6.17327E+09",
    "VaporPressure": {
        "eqno": "10",
        "A": "23.41177",
        "B": "6810.358",
        "C": "0",
        "Tmin": "273",
        "Tmax": "795.103"
    },
    "HeatOfVaporization": {
        "eqno": "106",
        "A": "8.897355E+07",
        "B": "0.38",
        "C": "0",
        "D": "0",
        "E": "0",
        "Tmin": "401.093",
        "Tmax": "799.32"
    },
    "LiquidHeatCapacityCp": {
        "eqno": "3",
        "A": "-164882.8",
        "B": "994.6407",
        "C": "-0.464037",
        "Tmin": "362.5371",
        "Tmax": "760.5541"
    },
    "IdealGasHeatCapacityCp": {
        "eqno": "16",
        "A": "98284.81",
        "B": "-500",
        "C": "13.35674",
        "D": "0",
        "E": "0",
        "Tmin": "255",
        "Tmax": "1500"
    },
    "LiquidViscosity": {
        "eqno": "101",
        "A": "-49.44655",
        "B": "15931.93",
        "C": "0",
        "D": "0",
        "E": "0",
        "Tmin": "311",
        "Tmax": "760.5541"
    },
    "VaporViscosity": {
        "eqno": "2",
        "A": "-5.128717E-07",
        "B": "1.011284E-08",
        "Tmin": "517.9102",
        "Tmax": "1000"
    },
    "LiquidThermalConductivity": {
        "eqno": "3",
        "A": "0.101839",
        "B": "0.000518198",
        "C": "-1.230409E-06",
        "Tmin": "253.15",
        "Tmax": "423.15"
    },
    "VaporThermalConductivity": {
        "eqno": "3",
        "A": "-0.0506874",
        "B": "0.00020251",
        "C": "-1.156856E-07",
        "Tmin": "473.15",
        "Tmax": "643.15"
    },
    "SurfaceTension": {
        "eqno": "116",
        "A": "0",
        "B": "0",
        "C": "0",
        "D": "0.0416997",
        "E": "0.0416997",
        "Tmin": "352.15",
        "Tmax": "795.1034"
    },
    "RPPHeatCapacityCp": {
        "eqno": "100",
        "A": "29100.65",
        "B": "0",
        "C": "0",
        "D": "0",
        "E": "0",
        "Tmin": "273",
        "Tmax": "1500"
    },
    "AntoineVaporPressure": {
        "eqno": "10",
        "A": "21.10686",
        "B": "4305.355",
        "C": "-123.6156",
        "Tmin": "458.392",
        "Tmax": "795.103"
    },
    "COSTALDVolume": "0.659084",
    "DiameterLJ": "7.671221E-10",
    "EnergyLJ": "355.1485",
    "RacketParameter": "0.251145",
    "FullerVolume": "211.53",
    "Parachor": "0.0792045",
    "SpecificGravity": "1.272",
    "Charge": "0",
    "CostaldAcentricFactor": "0.55805",
    "WilsonVolume": "0.18261",
    "UniquacR": "7.6234",
    "UniquacQ": "5.63",
    "UniquacQP": "5.634",
    "ChaoSeaderAcentricFactor": "0.55805",
    "ChaoSeaderLiquidVolume": "0.18261",
    "UnifacVLE": {
        "group": "1"
    },
    "Asog": {
        "group": "1"
    },
    "Umr": {
        "group": "1"
    },
    "CAS": "102-09-0",
    "Smiles": "C1=CC=C(C=C1)OC(=O)OC2=CC=CC=C2"
}