{
    "LibraryIndex": "1430",
    "CompoundID": "Ethyl tert-pentyl ether",
    "StructureFormula": "C2H5C(CH3)2OC2H5",
    "Family": "61",
    "CriticalTemperature": "544",
    "CriticalPressure": "2740000",
    "CriticalVolume": "0.435",
    "CriticalCompressibility": "0.273",
    "NormalBoilingPointTemperature": "374.15",
    "NormalMeltingPointTemperature": "190",
    "TriplePointTemperature": "190",
    "TriplePointPressure": "0.729523",
    "MolecularWeight": "116.2013",
    "LiquidVolumeAtNormalBoilingPoint": "0.152635",
    "AcentricityFactor": "0.338192",
    "RadiusOfGyration": "4.071E-10",
    "SolubilityParameter": "14970",
    "DipoleMoment": "5.14E-30",
    "VanDerWaalsVolume": "0.08217",
    "VanDerWaalsArea": "1.178E+09",
    "HeatOfFormation": "-3.324E+08",
    "GibbsEnergyOfFormation": "-1.094E+08",
    "AbsEntropy": "439200",
    "HeatOfFusionAtMeltingPoint": "1.2E+07",
    "HeatOfCombustion": "-4.32E+09",
    "SolidDensity": {
        "eqno": "100",
        "A": "9.4008",
        "B": "-0.0061847",
        "C": "0",
        "D": "0",
        "E": "0",
        "Tmin": "76",
        "Tmax": "190"
    },
    "LiquidDensity": {
        "eqno": "105",
        "A": "0.65888",
        "B": "0.27797",
        "C": "544",
        "D": "0.29227",
        "Tmin": "190",
        "Tmax": "527.26"
    },
    "VaporPressure": {
        "eqno": "101",
        "A": "47.12433",
        "B": "-5006.625",
        "C": "-3.892102",
        "D": "0.0000058438",
        "E": "2",
        "Tmin": "190",
        "Tmax": "546"
    },
    "HeatOfVaporization": {
        "eqno": "106",
        "A": "6.448049E+07",
        "B": "2.475757",
        "C": "-5.830862",
        "D": "5.958177",
        "E": "-2.135539",
        "Tmin": "190",
        "Tmax": "527.26"
    },
    "SolidHeatCapacityCp": {
        "eqno": "1",
        "A": "210610",
        "Tmin": "0",
        "Tmax": "544"
    },
    "LiquidHeatCapacityCp": {
        "eqno": "16",
        "A": "-79604",
        "B": "-398.25",
        "C": "15.392",
        "D": "-0.0067505",
        "E": "0.0000071337",
        "Tmin": "272",
        "Tmax": "520"
    },
    "IdealGasHeatCapacityCp": {
        "eqno": "16",
        "A": "119820",
        "B": "-647.93",
        "C": "13.251",
        "D": "-0.00004893",
        "E": "2.8951E-09",
        "Tmin": "190",
        "Tmax": "1200"
    },
    "SecondVirialCoefficient": {
        "eqno": "104",
        "A": "0.26473",
        "B": "-291.19",
        "C": "-50.413",
        "D": "-1429",
        "E": "-7779.1",
        "Tmin": "273",
        "Tmax": "1500"
    },
    "LiquidViscosity": {
        "eqno": "101",
        "A": "-11.435",
        "B": "1134.3",
        "C": "-0.0102",
        "D": "2.552E-08",
        "E": "2",
        "Tmin": "190",
        "Tmax": "374.57"
    },
    "VaporViscosity": {
        "eqno": "102",
        "A": "1.2029E-07",
        "B": "0.7552",
        "C": "122.76",
        "D": "-2833.2",
        "Tmin": "190",
        "Tmax": "1000"
    },
    "LiquidThermalConductivity": {
        "eqno": "16",
        "A": "-0.13805",
        "B": "13.252",
        "C": "-1.2618",
        "D": "-0.00018101",
        "E": "-0.0000010967",
        "Tmin": "190",
        "Tmax": "435.2"
    },
    "VaporThermalConductivity": {
        "eqno": "102",
        "A": "0.00013295",
        "B": "0.98504",
        "C": "431.52",
        "D": "34060",
        "Tmin": "190",
        "Tmax": "1000"
    },
    "SurfaceTension": {
        "eqno": "16",
        "A": "-0.012045",
        "B": "51.27",
        "C": "-3.2868",
        "D": "0.00081088",
        "E": "-0.0000057636",
        "Tmin": "190",
        "Tmax": "527.26"
    },
    "RPPHeatCapacityCp": {
        "eqno": "4",
        "A": "2299.7",
        "B": "719.3",
        "C": "-0.404",
        "D": "0.000086601",
        "Tmin": "190",
        "Tmax": "1200"
    },
    "AntoineVaporPressure": {
        "eqno": "10",
        "A": "21.218",
        "B": "3203.1",
        "C": "-44.232",
        "Tmin": "327.25",
        "Tmax": "471.05"
    },
    "LiquidViscosityRPS": {
        "eqno": "12",
        "A": "-2.9477",
        "B": "-0.015403",
        "Tmin": "190",
        "Tmax": "374.57"
    },
    "COSTALDVolume": "0.447652",
    "DiameterLJ": "6.714488E-10",
    "EnergyLJ": "331.6635",
    "RacketParameter": "0.273",
    "FullerVolume": "154.37",
    "Parachor": "0.0585327",
    "SpecificGravity": "0.76996",
    "Charge": "0",
    "CostaldAcentricFactor": "0.338192",
    "WilsonVolume": "0.152635",
    "UniquacR": "5.4166",
    "UniquacQ": "4.712",
    "ChaoSeaderAcentricFactor": "0.338192",
    "ChaoSeaderSolubilityParameter": "14970",
    "ChaoSeaderLiquidVolume": "0.152635",
    "UnifacVLE": {
        "group": "1"
    },
    "UnifacLLE": {
        "group": "1"
    },
    "Asog": {
        "group": "1"
    },
    "Umr": {
        "group": "1"
    },
    "ModifiedUnifac": {
        "group": "1"
    },
    "CAS": "919-94-8",
    "Smiles": "CCC(C)(C)OCC"
}