{
    "LibraryIndex": "201",
    "CompoundID": "Ethylene",
    "StructureFormula": "CH2CH2",
    "Family": "9",
    "CriticalTemperature": "282.34",
    "CriticalPressure": "5041000",
    "CriticalVolume": "0.1311",
    "CriticalCompressibility": "0.282",
    "NormalBoilingPointTemperature": "169.42",
    "NormalMeltingPointTemperature": "104",
    "TriplePointTemperature": "104",
    "TriplePointPressure": "125.988",
    "MolecularWeight": "28.05316",
    "LiquidVolumeAtNormalBoilingPoint": "0.05107",
    "AcentricityFactor": "0.087",
    "RadiusOfGyration": "1.548E-10",
    "SolubilityParameter": "12440",
    "DipoleMoment": "0",
    "VanDerWaalsVolume": "0.02388",
    "VanDerWaalsArea": "3.72E+08",
    "HeatOfFormation": "5.251E+07",
    "GibbsEnergyOfFormation": "6.844E+07",
    "AbsEntropy": "219200",
    "HeatOfFusionAtMeltingPoint": "3351000",
    "MatthiasCopemanC1": "0.61252",
    "HeatOfCombustion": "-1.323E+09",
    "SolidDensity": {
        "eqno": "2",
        "A": "29.172",
        "B": "-0.027595",
        "Tmin": "73.15",
        "Tmax": "104"
    },
    "LiquidDensity": {
        "eqno": "105",
        "A": "2.3782",
        "B": "0.29542",
        "C": "282.36",
        "D": "0.32456",
        "Tmin": "103.18",
        "Tmax": "282.35"
    },
    "VaporPressure": {
        "eqno": "101",
        "A": "54.53229",
        "B": "-2458.42",
        "C": "-5.660037",
        "D": "0.0000194185",
        "E": "2",
        "Tmin": "104",
        "Tmax": "282.35"
    },
    "HeatOfVaporization": {
        "eqno": "106",
        "A": "2.1658E+07",
        "B": "1.2164",
        "C": "-2.1538",
        "D": "2.0768",
        "E": "-0.73096",
        "Tmin": "104",
        "Tmax": "282.35"
    },
    "SolidHeatCapacityCp": {
        "eqno": "100",
        "A": "4815.2",
        "B": "-937.58",
        "C": "68.923",
        "D": "-1.0511",
        "E": "0.0052386",
        "Tmin": "10",
        "Tmax": "103.97"
    },
    "LiquidHeatCapacityCp": {
        "eqno": "16",
        "A": "68016",
        "B": "-22414",
        "C": "286.75",
        "D": "-1.1802",
        "E": "0.0017304",
        "Tmin": "99.82",
        "Tmax": "259.95"
    },
    "IdealGasHeatCapacityCp": {
        "eqno": "16",
        "A": "33071.93",
        "B": "-860.0281",
        "C": "12.22807",
        "D": "-0.000509703",
        "E": "1.628387E-07",
        "Tmin": "50",
        "Tmax": "1500"
    },
    "SecondVirialCoefficient": {
        "eqno": "104",
        "A": "0.092447",
        "B": "-60.239",
        "C": "-0.7957",
        "D": "-5.0549",
        "E": "5.3309",
        "Tmin": "120",
        "Tmax": "1500"
    },
    "LiquidViscosity": {
        "eqno": "101",
        "A": "-8.9556",
        "B": "288.21",
        "C": "-0.21985",
        "D": "-0.000010831",
        "E": "2",
        "Tmin": "103.1",
        "Tmax": "283"
    },
    "VaporViscosity": {
        "eqno": "102",
        "A": "0.0000021134",
        "B": "0.41436",
        "C": "359.51",
        "D": "-2291.7",
        "Tmin": "169.41",
        "Tmax": "1000"
    },
    "LiquidThermalConductivity": {
        "eqno": "16",
        "A": "-0.19499",
        "B": "-11.178",
        "C": "-0.31182",
        "D": "-0.0034844",
        "E": "3.5873E-07",
        "Tmin": "100",
        "Tmax": "280"
    },
    "VaporThermalConductivity": {
        "eqno": "102",
        "A": "0.0000093247",
        "B": "1.4607",
        "C": "410.48",
        "D": "-44405",
        "Tmin": "170",
        "Tmax": "590.92"
    },
    "SurfaceTension": {
        "eqno": "16",
        "A": "-0.002859",
        "B": "236.18",
        "C": "-7.9878",
        "D": "0.032145",
        "E": "-0.000097469",
        "Tmin": "104",
        "Tmax": "272.95"
    },
    "RPPHeatCapacityCp": {
        "eqno": "100",
        "A": "35095",
        "B": "-73.018",
        "C": "0.48182",
        "D": "-0.00055948",
        "E": "2.0878E-07",
        "Tmin": "50",
        "Tmax": "1000"
    },
    "AntoineVaporPressure": {
        "eqno": "10",
        "A": "20.89",
        "B": "1502.3",
        "C": "-8.9148",
        "Tmin": "169.41",
        "Tmax": "253.1"
    },
    "LiquidViscosityRPS": {
        "eqno": "13",
        "A": "-4.3856",
        "B": "-0.034465",
        "C": "0.000053356",
        "Tmin": "103.1",
        "Tmax": "260"
    },
    "COSTALDVolume": "0.13097",
    "DiameterLJ": "4.329924E-10",
    "EnergyLJ": "193.4561",
    "RacketParameter": "0.281",
    "FullerVolume": "41.04",
    "MatthiasCopemanC2": "0",
    "Parachor": "0.0177",
    "SpecificGravity": "0.383226",
    "Charge": "0",
    "CostaldAcentricFactor": "0.0882",
    "WilsonVolume": "0.0493214",
    "UniquacR": "1.57",
    "UniquacQ": "1.49",
    "ApiSrkS2": "-0.002805",
    "MatthiasCopemanC3": "0",
    "ChaoSeaderAcentricFactor": "0.0949",
    "ChaoSeaderSolubilityParameter": "12436.64",
    "ChaoSeaderLiquidVolume": "0.061",
    "UnifacVLE": {
        "group": "2"
    },
    "UnifacLLE": {
        "group": "2"
    },
    "Asog": {
        "group": "2"
    },
    "GCmethod": {
        "group": "1"
    },
    "Umr": {
        "group": "2"
    },
    "ModifiedUnifac": {
        "group": "2"
    },
    "CAS": "74-85-1",
    "Smiles": "C=C"
}