{
    "LibraryIndex": "1802",
    "CompoundID": "Ethyl mercaptan",
    "StructureFormula": "CH3CH2SH",
    "Family": "41",
    "CriticalTemperature": "499",
    "CriticalPressure": "5490000",
    "CriticalVolume": "0.207",
    "CriticalCompressibility": "0.274",
    "NormalBoilingPointTemperature": "308.15",
    "NormalMeltingPointTemperature": "125.26",
    "TriplePointTemperature": "125.26",
    "TriplePointPressure": "0.00113837",
    "MolecularWeight": "62.13404",
    "LiquidVolumeAtNormalBoilingPoint": "0.07458",
    "AcentricityFactor": "0.189",
    "RadiusOfGyration": "2.363E-10",
    "SolubilityParameter": "18250",
    "DipoleMoment": "5.27E-30",
    "VanDerWaalsVolume": "0.03871",
    "VanDerWaalsArea": "5.75E+08",
    "HeatOfFormation": "-4.63E+07",
    "GibbsEnergyOfFormation": "-4814000",
    "AbsEntropy": "296100",
    "HeatOfFusionAtMeltingPoint": "4975000",
    "MatthiasCopemanC1": "0.79757",
    "HeatOfCombustion": "-1.7366E+09",
    "SolidDensity": {
        "eqno": "2",
        "A": "20.608",
        "B": "-0.018284",
        "Tmin": "50.1",
        "Tmax": "125.26"
    },
    "LiquidDensity": {
        "eqno": "105",
        "A": "1.203",
        "B": "0.25909",
        "C": "499.16",
        "D": "0.26567",
        "Tmin": "125.26",
        "Tmax": "499.15"
    },
    "VaporPressure": {
        "eqno": "101",
        "A": "65.4773",
        "B": "-5020.82",
        "C": "-6.678317",
        "D": "6.449817E-06",
        "E": "2",
        "Tmin": "125.26",
        "Tmax": "499.15"
    },
    "HeatOfVaporization": {
        "eqno": "106",
        "A": "4.1777E+07",
        "B": "0.6898",
        "C": "-0.36317",
        "D": "-0.097723",
        "E": "0.16958",
        "Tmin": "125.26",
        "Tmax": "479.47"
    },
    "SolidHeatCapacityCp": {
        "eqno": "100",
        "A": "-14082",
        "B": "1399.4",
        "C": "-10.378",
        "D": "0.036681",
        "E": "-0.0000060677",
        "Tmin": "14",
        "Tmax": "125.26"
    },
    "LiquidHeatCapacityCp": {
        "eqno": "16",
        "A": "112430",
        "B": "-35384",
        "C": "348.44",
        "D": "-1.1065",
        "E": "0.0012231",
        "Tmin": "125.26",
        "Tmax": "315.25"
    },
    "IdealGasHeatCapacityCp": {
        "eqno": "16",
        "A": "39403.72",
        "B": "-328.0582",
        "C": "11.29594",
        "D": "0.000950986",
        "E": "-3.249647E-07",
        "Tmin": "80",
        "Tmax": "1500"
    },
    "SecondVirialCoefficient": {
        "eqno": "104",
        "A": "0.11733",
        "B": "-135.4",
        "C": "-13.776",
        "D": "-593.18",
        "E": "775.57",
        "Tmin": "249.5",
        "Tmax": "1996"
    },
    "LiquidViscosity": {
        "eqno": "101",
        "A": "-10.854",
        "B": "753.55",
        "C": "0.040849",
        "D": "-7.5884E-07",
        "E": "2",
        "Tmin": "125.26",
        "Tmax": "399"
    },
    "VaporViscosity": {
        "eqno": "102",
        "A": "0.0000001695",
        "B": "0.75553",
        "C": "151.56",
        "D": "-5377.8",
        "Tmin": "125.26",
        "Tmax": "1000"
    },
    "LiquidThermalConductivity": {
        "eqno": "16",
        "A": "-0.021257",
        "B": "2.7237",
        "C": "-1.42",
        "D": "-0.0008779",
        "E": "-0.0000018277",
        "Tmin": "125.26",
        "Tmax": "308.15"
    },
    "VaporThermalConductivity": {
        "eqno": "102",
        "A": "0.0014607",
        "B": "0.7033",
        "C": "1243.2",
        "D": "53588",
        "Tmin": "125.26",
        "Tmax": "1000"
    },
    "SurfaceTension": {
        "eqno": "16",
        "A": "-0.051518",
        "B": "-2.7266",
        "C": "-2.1105",
        "D": "-0.0014355",
        "E": "-5.6772E-07",
        "Tmin": "125.26",
        "Tmax": "479.47"
    },
    "RPPHeatCapacityCp": {
        "eqno": "100",
        "A": "32377",
        "B": "107.68",
        "C": "0.17061",
        "D": "-0.0002733",
        "E": "1.0909E-07",
        "Tmin": "50",
        "Tmax": "1000"
    },
    "RelativeStaticPermittivity": {
        "eqno": "120",
        "A": "-6.861601",
        "B": "-4000",
        "C": "-24",
        "Tmin": "274.15",
        "Tmax": "444.15"
    },
    "AntoineVaporPressure": {
        "eqno": "10",
        "A": "21.188",
        "B": "2662",
        "C": "-32.622",
        "Tmin": "299.82",
        "Tmax": "440.11"
    },
    "LiquidViscosityRPS": {
        "eqno": "13",
        "A": "0.92662",
        "B": "-0.056615",
        "C": "0.000088024",
        "Tmin": "125.26",
        "Tmax": "308.15"
    },
    "COSTALDVolume": "0.20227",
    "DiameterLJ": "5.219166E-10",
    "EnergyLJ": "308.2589",
    "FullerVolume": "68.56",
    "MatthiasCopemanC2": "-0.22578",
    "Parachor": "0.0292",
    "SpecificGravity": "0.836507",
    "Charge": "0",
    "CostaldAcentricFactor": "0.19144",
    "WilsonVolume": "0.0746133",
    "UniquacR": "2.551747",
    "UniquacQ": "2.3",
    "ApiSrkS1": "0.763226",
    "ApiSrkS2": "0.003516",
    "MatthiasCopemanC3": "0.43784",
    "ChaoSeaderAcentricFactor": "0.192074",
    "ChaoSeaderSolubilityParameter": "18270.4",
    "ChaoSeaderLiquidVolume": "0.0746133",
    "UnifacVLE": {
        "group": "1"
    },
    "Asog": {
        "group": "1"
    },
    "GCmethod": {
        "group": "1"
    },
    "CAS": "75-08-1",
    "Smiles": "CCS"
}