{
    "LibraryIndex": "1366",
    "CompoundID": "Ethylene carbonate",
    "StructureFormula": "-CH2OCOOCH2-",
    "Family": "45",
    "CriticalTemperature": "806",
    "CriticalPressure": "6770000",
    "CriticalVolume": "0.193",
    "CriticalCompressibility": "0.195",
    "NormalBoilingPointTemperature": "521.15",
    "NormalMeltingPointTemperature": "309.15",
    "TriplePointTemperature": "309.55",
    "TriplePointPressure": "8.01004",
    "MolecularWeight": "88.06207",
    "LiquidVolumeAtNormalBoilingPoint": "0.0664942",
    "AcentricityFactor": "0.442272",
    "RadiusOfGyration": "2.841E-10",
    "SolubilityParameter": "29660",
    "DipoleMoment": "1.5E-29",
    "VanDerWaalsVolume": "0.03822",
    "VanDerWaalsArea": "4.93E+08",
    "HeatOfFormation": "-5.069E+08",
    "GibbsEnergyOfFormation": "-4.1E+08",
    "AbsEntropy": "260000",
    "HeatOfFusionAtMeltingPoint": "1.0E+07",
    "MatthiasCopemanC1": "1.09004",
    "HeatOfCombustion": "-1.083E+09",
    "SolidDensity": {
        "eqno": "2",
        "A": "17.828",
        "B": "-3.9834E-16",
        "C": "0",
        "D": "0",
        "E": "0",
        "Tmin": "0",
        "Tmax": "9.5"
    },
    "LiquidDensity": {
        "eqno": "105",
        "A": "1.5442",
        "B": "0.2959",
        "C": "806",
        "D": "0.28857",
        "Tmin": "293.15",
        "Tmax": "779.87"
    },
    "VaporPressure": {
        "eqno": "101",
        "A": "132.44",
        "B": "-12293",
        "C": "-15.875",
        "D": "0.0000073572",
        "E": "2",
        "Tmin": "309.55",
        "Tmax": "806"
    },
    "HeatOfVaporization": {
        "eqno": "106",
        "A": "8.7297E+07",
        "B": "-0.075043",
        "C": "3.7018",
        "D": "-6.1954",
        "E": "2.9631",
        "Tmin": "309.55",
        "Tmax": "779.87"
    },
    "SolidHeatCapacityCp": {
        "eqno": "100",
        "A": "4148.7",
        "B": "304010",
        "C": "-3104",
        "D": "10.582",
        "E": "-0.012029",
        "Tmin": "288.15",
        "Tmax": "298.15"
    },
    "LiquidHeatCapacityCp": {
        "eqno": "16",
        "A": "-57259",
        "B": "-17.021",
        "C": "11.366",
        "D": "0.0033817",
        "E": "-0.0000020646",
        "Tmin": "298.15",
        "Tmax": "511.15"
    },
    "IdealGasHeatCapacityCp": {
        "eqno": "16",
        "A": "50075",
        "B": "-516.61",
        "C": "12.288",
        "D": "0.000013893",
        "E": "-2.689E-08",
        "Tmin": "273",
        "Tmax": "1500"
    },
    "SecondVirialCoefficient": {
        "eqno": "104",
        "A": "0.13741",
        "B": "-194.4",
        "C": "-144.41",
        "D": "-699130",
        "E": "1646500",
        "Tmin": "403",
        "Tmax": "1500"
    },
    "LiquidViscosity": {
        "eqno": "101",
        "A": "-8.7402",
        "B": "1424.5",
        "C": "-0.45708",
        "D": "0.0000005934",
        "E": "2",
        "Tmin": "310.93",
        "Tmax": "372.04"
    },
    "VaporViscosity": {
        "eqno": "102",
        "A": "8.5517E-08",
        "B": "0.85448",
        "C": "116.16",
        "D": "-3914.9",
        "Tmin": "309.55",
        "Tmax": "1000"
    },
    "LiquidThermalConductivity": {
        "eqno": "16",
        "A": "0.00091342",
        "B": "-110.82",
        "C": "-0.51748",
        "D": "-0.0023793",
        "E": "3.9376E-07",
        "Tmin": "309.55",
        "Tmax": "521.35"
    },
    "VaporThermalConductivity": {
        "eqno": "102",
        "A": "0.030823",
        "B": "0.34958",
        "C": "3003.2",
        "D": "830800",
        "Tmin": "274",
        "Tmax": "1000"
    },
    "SurfaceTension": {
        "eqno": "116",
        "A": "0",
        "B": "0",
        "C": "0",
        "D": "0.0366997",
        "E": "0.0366997",
        "Tmin": "309.15",
        "Tmax": "806"
    },
    "RPPHeatCapacityCp": {
        "eqno": "4",
        "A": "5956",
        "B": "338.31",
        "C": "-0.21843",
        "D": "0.000052329",
        "Tmin": "273",
        "Tmax": "1500"
    },
    "RelativeStaticPermittivity": {
        "eqno": "120",
        "A": "0.204056",
        "B": "-18366.46",
        "C": "-107.1818",
        "Tmin": "309",
        "Tmax": "806"
    },
    "AntoineVaporPressure": {
        "eqno": "10",
        "A": "22.69",
        "B": "5599.1",
        "C": "-19.097",
        "Tmin": "492.45",
        "Tmax": "701.48"
    },
    "LiquidViscosityRPS": {
        "eqno": "12",
        "A": "-2.6347",
        "B": "-0.013224",
        "Tmin": "310.93",
        "Tmax": "372.04"
    },
    "COSTALDVolume": "0.202594",
    "DiameterLJ": "7.668715E-10",
    "EnergyLJ": "146.3433",
    "RacketParameter": "0.236254",
    "FullerVolume": "75.27",
    "MatthiasCopemanC2": "0",
    "Parachor": "0.0299348",
    "SpecificGravity": "1.343115",
    "Charge": "0",
    "CostaldAcentricFactor": "0.442272",
    "WilsonVolume": "0.0664942",
    "UniquacR": "2.9288",
    "UniquacQ": "2.47",
    "MatthiasCopemanC3": "0",
    "ChaoSeaderAcentricFactor": "0.442272",
    "ChaoSeaderSolubilityParameter": "29660",
    "ChaoSeaderLiquidVolume": "0.0664942",
    "UnifacVLE": {
        "group": "1"
    },
    "Asog": {
        "group": "1"
    },
    "Umr": {
        "group": "1"
    },
    "CAS": "96-49-1",
    "Smiles": "C1OC(=O)OC1"
}