{
    "LibraryIndex": "1302",
    "CompoundID": "Ethyl formate",
    "StructureFormula": "HCOOCH2CH3",
    "Family": "55",
    "CriticalTemperature": "508.5",
    "CriticalPressure": "4740000",
    "CriticalVolume": "0.229",
    "CriticalCompressibility": "0.257",
    "NormalBoilingPointTemperature": "327.47",
    "NormalMeltingPointTemperature": "193.55",
    "TriplePointTemperature": "193.55",
    "TriplePointPressure": "18.1186",
    "MolecularWeight": "74.07854",
    "LiquidVolumeAtNormalBoilingPoint": "0.08093",
    "AcentricityFactor": "0.282",
    "RadiusOfGyration": "2.963E-10",
    "SolubilityParameter": "19070",
    "DipoleMoment": "6.44E-30",
    "VanDerWaalsVolume": "0.04274",
    "VanDerWaalsArea": "6.44E+08",
    "HeatOfFormation": "-3.883E+08",
    "GibbsEnergyOfFormation": "-3.031E+08",
    "AbsEntropy": "328200",
    "HeatOfFusionAtMeltingPoint": "9204800",
    "MatthiasCopemanC1": "0.91636",
    "HeatOfCombustion": "-1.50696E+09",
    "SolidDensity": {
        "eqno": "2",
        "A": "17.766",
        "B": "-0.010171",
        "Tmin": "77.42",
        "Tmax": "193.55"
    },
    "LiquidDensity": {
        "eqno": "105",
        "A": "0.85568",
        "B": "0.22882",
        "C": "508.5",
        "D": "0.23792",
        "Tmin": "193.55",
        "Tmax": "508.45"
    },
    "VaporPressure": {
        "eqno": "101",
        "A": "69.04518",
        "B": "-5678.642",
        "C": "-7.031396",
        "D": "0.0000050057",
        "E": "2",
        "Tmin": "193.55",
        "Tmax": "508.45"
    },
    "HeatOfVaporization": {
        "eqno": "106",
        "A": "5.9813E+07",
        "B": "2.1931",
        "C": "-4.6587",
        "D": "4.7089",
        "E": "-1.7696",
        "Tmin": "193.55",
        "Tmax": "508.45"
    },
    "SolidHeatCapacityCp": {
        "eqno": "1",
        "A": "104870",
        "Tmin": "298",
        "Tmax": "5"
    },
    "LiquidHeatCapacityCp": {
        "eqno": "16",
        "A": "115910",
        "B": "228.3",
        "C": "4.0783",
        "D": "0.027366",
        "E": "-0.000029781",
        "Tmin": "254.2",
        "Tmax": "374.2"
    },
    "IdealGasHeatCapacityCp": {
        "eqno": "16",
        "A": "52378",
        "B": "-459.08",
        "C": "11.875",
        "D": "0.00065506",
        "E": "-2.4832E-07",
        "Tmin": "100",
        "Tmax": "1500"
    },
    "SecondVirialCoefficient": {
        "eqno": "104",
        "A": "0.12511",
        "B": "-132.24",
        "C": "-21.864",
        "D": "-2112.2",
        "E": "1102.8",
        "Tmin": "254.2",
        "Tmax": "1779.4"
    },
    "LiquidViscosity": {
        "eqno": "101",
        "A": "-8.9483",
        "B": "848.56",
        "C": "-0.31567",
        "D": "2.8582E-07",
        "E": "2",
        "Tmin": "245",
        "Tmax": "345"
    },
    "VaporViscosity": {
        "eqno": "102",
        "A": "6.0691E-07",
        "B": "0.60378",
        "C": "450.04",
        "D": "-20466",
        "Tmin": "193.55",
        "Tmax": "1000"
    },
    "LiquidThermalConductivity": {
        "eqno": "16",
        "A": "-0.030927",
        "B": "19.999",
        "C": "-1.4911",
        "D": "-0.000052048",
        "E": "-0.0000024111",
        "Tmin": "193.55",
        "Tmax": "433.15"
    },
    "VaporThermalConductivity": {
        "eqno": "102",
        "A": "381.39",
        "B": "0.9159",
        "C": "1.8E+09",
        "D": "-1.1462E+10",
        "Tmin": "193.55",
        "Tmax": "1000"
    },
    "SurfaceTension": {
        "eqno": "16",
        "A": "-0.02094",
        "B": "32.394",
        "C": "-2.9299",
        "D": "0.00035555",
        "E": "-0.0000045837",
        "Tmin": "193.55",
        "Tmax": "508.4"
    },
    "RPPHeatCapacityCp": {
        "eqno": "4",
        "A": "28653",
        "B": "223.54",
        "C": "-0.054573",
        "D": "-0.0000084089",
        "Tmin": "100",
        "Tmax": "1500"
    },
    "RelativeStaticPermittivity": {
        "eqno": "120",
        "A": "-5.722828",
        "B": "-3550",
        "C": "-21.3",
        "Tmin": "279.15",
        "Tmax": "449.15"
    },
    "AntoineVaporPressure": {
        "eqno": "10",
        "A": "21.231",
        "B": "2723.8",
        "C": "-46.87",
        "Tmin": "309.55",
        "Tmax": "453.15"
    },
    "LiquidViscosityRPS": {
        "eqno": "13",
        "A": "-1.5155",
        "B": "-0.032057",
        "C": "0.000035967",
        "Tmin": "245",
        "Tmax": "345"
    },
    "COSTALDVolume": "0.22605",
    "DiameterLJ": "5.82913E-10",
    "EnergyLJ": "249.4384",
    "FullerVolume": "73.78",
    "MatthiasCopemanC2": "-0.06979",
    "Parachor": "0.0317",
    "SpecificGravity": "0.928963",
    "Charge": "0",
    "CostaldAcentricFactor": "0.28499",
    "WilsonVolume": "0.0808277",
    "UniquacR": "2.8175",
    "UniquacQ": "2.576",
    "MatthiasCopemanC3": "0.17409",
    "ChaoSeaderAcentricFactor": "0.285",
    "ChaoSeaderSolubilityParameter": "18938.7",
    "ChaoSeaderLiquidVolume": "0.0808277",
    "UnifacVLE": {
        "group": "1"
    },
    "Asog": {
        "group": "1"
    },
    "Umr": {
        "group": "1"
    },
    "ModifiedUnifac": {
        "group": "1"
    },
    "CAS": "109-94-4",
    "Smiles": "CCOC(=O)"
}