{
    "LibraryIndex": "1201",
    "CompoundID": "Ethylene glycol",
    "StructureFormula": "HOCH2CH2OH",
    "Family": "49",
    "CriticalTemperature": "719",
    "CriticalPressure": "8200000",
    "CriticalVolume": "0.191",
    "CriticalCompressibility": "0.262",
    "NormalBoilingPointTemperature": "470.45",
    "NormalMeltingPointTemperature": "260.15",
    "TriplePointTemperature": "260.15",
    "TriplePointPressure": "0.21922",
    "MolecularWeight": "62.06784",
    "LiquidVolumeAtNormalBoilingPoint": "0.055908",
    "AcentricityFactor": "0.506776",
    "RadiusOfGyration": "2.564E-10",
    "SolubilityParameter": "33840",
    "DipoleMoment": "8.04E-30",
    "VanDerWaalsVolume": "0.03654",
    "VanDerWaalsArea": "5.62E+08",
    "HeatOfFormation": "-3.922E+08",
    "GibbsEnergyOfFormation": "-3.018E+08",
    "AbsEntropy": "304891",
    "HeatOfFusionAtMeltingPoint": "9958000",
    "MatthiasCopemanC1": "1.25835",
    "HeatOfCombustion": "-1.0527E+09",
    "SolidDensity": {
        "eqno": "2",
        "A": "23.236",
        "B": "-0.009952",
        "Tmin": "104.06",
        "Tmax": "260.15"
    },
    "LiquidDensity": {
        "eqno": "105",
        "A": "1.3106",
        "B": "0.25084",
        "C": "720",
        "D": "0.21838",
        "Tmin": "260.15",
        "Tmax": "695.8"
    },
    "VaporPressure": {
        "eqno": "101",
        "A": "68.11797",
        "B": "-9617.267",
        "C": "-5.83171",
        "D": "-1.13705E-06",
        "E": "2",
        "Tmin": "260.15",
        "Tmax": "720"
    },
    "HeatOfVaporization": {
        "eqno": "106",
        "A": "7.414E+07",
        "B": "0.16807",
        "C": "-0.19694",
        "D": "1.0417",
        "E": "-0.61488",
        "Tmin": "260.15",
        "Tmax": "695.8"
    },
    "SolidHeatCapacityCp": {
        "eqno": "100",
        "A": "24975",
        "B": "-137.65",
        "C": "6.7837",
        "D": "-0.041927",
        "E": "0.000088083",
        "Tmin": "40",
        "Tmax": "240"
    },
    "LiquidHeatCapacityCp": {
        "eqno": "16",
        "A": "86990",
        "B": "-72.326",
        "C": "9.7466",
        "D": "0.0065456",
        "E": "-0.0000047",
        "Tmin": "260.15",
        "Tmax": "493.15"
    },
    "IdealGasHeatCapacityCp": {
        "eqno": "16",
        "A": "52948",
        "B": "-604.61",
        "C": "12.115",
        "D": "0.00010607",
        "E": "-4.9352E-08",
        "Tmin": "260.15",
        "Tmax": "1500"
    },
    "SecondVirialCoefficient": {
        "eqno": "104",
        "A": "-0.078528",
        "B": "282.59",
        "C": "-200.74",
        "D": "1071400",
        "E": "-5423600",
        "Tmin": "360",
        "Tmax": "1500"
    },
    "LiquidViscosity": {
        "eqno": "101",
        "A": "-309.38",
        "B": "14928",
        "C": "45.49",
        "D": "-0.000044405",
        "E": "2",
        "Tmin": "260.15",
        "Tmax": "576"
    },
    "VaporViscosity": {
        "eqno": "102",
        "A": "1.2284E-07",
        "B": "0.79557",
        "C": "132.87",
        "D": "-5540.3",
        "Tmin": "260.15",
        "Tmax": "1000"
    },
    "LiquidThermalConductivity": {
        "eqno": "16",
        "A": "0.1684",
        "B": "-313.75",
        "C": "-1.072",
        "D": "-0.000058054",
        "E": "-0.0000032443",
        "Tmin": "260.15",
        "Tmax": "470.45"
    },
    "VaporThermalConductivity": {
        "eqno": "102",
        "A": "-8962900",
        "B": "-0.31257",
        "C": "2.5313E+09",
        "D": "-1.2955E+13",
        "Tmin": "260.15",
        "Tmax": "1000"
    },
    "SurfaceTension": {
        "eqno": "16",
        "A": "-0.0064328",
        "B": "94.796",
        "C": "-3.4232",
        "D": "0.001824",
        "E": "-0.0000039732",
        "Tmin": "260.15",
        "Tmax": "470.45"
    },
    "RPPHeatCapacityCp": {
        "eqno": "4",
        "A": "12781",
        "B": "255.9",
        "C": "-0.13868",
        "D": "0.000028589",
        "Tmin": "260.15",
        "Tmax": "1500"
    },
    "RelativeStaticPermittivity": {
        "eqno": "120",
        "A": "-9.798016",
        "B": "-14083.52",
        "C": "-5.743104",
        "Tmin": "278",
        "Tmax": "720"
    },
    "AntoineVaporPressure": {
        "eqno": "10",
        "A": "22.236",
        "B": "3826",
        "C": "-113.27",
        "Tmin": "433.1",
        "Tmax": "647.39"
    },
    "LiquidViscosityRPS": {
        "eqno": "13",
        "A": "11.094",
        "B": "-0.068649",
        "C": "0.000060412",
        "Tmin": "260.15",
        "Tmax": "576"
    },
    "COSTALDVolume": "0.193662",
    "DiameterLJ": "5.361602E-10",
    "EnergyLJ": "378.5562",
    "FullerVolume": "57.88",
    "MatthiasCopemanC2": "0",
    "Parachor": "0.0261796",
    "SpecificGravity": "1.11071",
    "Charge": "0",
    "CostaldAcentricFactor": "0.48683",
    "WilsonVolume": "0.0559089",
    "UniquacR": "2.41",
    "UniquacQ": "2.25",
    "MatthiasCopemanC3": "0",
    "ChaoSeaderAcentricFactor": "0.48683",
    "ChaoSeaderSolubilityParameter": "33703.3",
    "ChaoSeaderLiquidVolume": "0.0559089",
    "UnifacVLE": {
        "group": "1"
    },
    "UnifacLLE": {
        "group": "1"
    },
    "Asog": {
        "group": "2"
    },
    "GCmethod": {
        "group": "2"
    },
    "Umr": {
        "group": "1"
    },
    "ModifiedUnifac": {
        "group": "2"
    },
    "CAS": "107-21-1",
    "Smiles": "OCCO"
}