{
    "LibraryIndex": "1741",
    "CompoundID": "Ethylenediamine",
    "StructureFormula": "H2NCH2CH2NH2",
    "Family": "37",
    "CriticalTemperature": "592.95",
    "CriticalPressure": "6290000",
    "CriticalVolume": "0.206",
    "CriticalCompressibility": "0.337",
    "NormalBoilingPointTemperature": "390.15",
    "NormalMeltingPointTemperature": "281.65",
    "TriplePointTemperature": "284.29",
    "TriplePointPressure": "677.511",
    "MolecularWeight": "60.09832",
    "LiquidVolumeAtNormalBoilingPoint": "0.0672757",
    "AcentricityFactor": "0.472367",
    "RadiusOfGyration": "2.7605E-10",
    "SolubilityParameter": "25200",
    "DipoleMoment": "6.34E-30",
    "VanDerWaalsVolume": "0.04154",
    "VanDerWaalsArea": "5.54E+08",
    "HeatOfFormation": "-1.78E+07",
    "GibbsEnergyOfFormation": "1.032E+08",
    "AbsEntropy": "321833",
    "HeatOfFusionAtMeltingPoint": "109700",
    "MatthiasCopemanC1": "1.3873",
    "HeatOfCombustion": "-1.691E+09",
    "SolidDensity": {
        "eqno": "2",
        "A": "19.105",
        "B": "-0.007483",
        "C": "0",
        "D": "0",
        "E": "0",
        "Tmin": "113.72",
        "Tmax": "284.29"
    },
    "LiquidDensity": {
        "eqno": "105",
        "A": "0.77469",
        "B": "0.20588",
        "C": "592.95",
        "D": "0.20098",
        "Tmin": "273.15",
        "Tmax": "576.75"
    },
    "VaporPressure": {
        "eqno": "101",
        "A": "133.543",
        "B": "-9787.615",
        "C": "-16.57909",
        "D": "0.0000129717",
        "E": "2",
        "Tmin": "262.15",
        "Tmax": "593"
    },
    "HeatOfVaporization": {
        "eqno": "106",
        "A": "7.5708E+07",
        "B": "1.0826",
        "C": "-0.65481",
        "D": "-0.27019",
        "E": "0.25065",
        "Tmin": "284.29",
        "Tmax": "576.75"
    },
    "SolidHeatCapacityCp": {
        "eqno": "100",
        "A": "-16264",
        "B": "987.11",
        "C": "-4.4926",
        "D": "0.011566",
        "E": "-0.0000088487",
        "Tmin": "25.91",
        "Tmax": "265.65"
    },
    "LiquidHeatCapacityCp": {
        "eqno": "16",
        "A": "143860",
        "B": "434.68",
        "C": "4.2425",
        "D": "0.021662",
        "E": "-0.000021123",
        "Tmin": "284.29",
        "Tmax": "390.41"
    },
    "IdealGasHeatCapacityCp": {
        "eqno": "16",
        "A": "58340",
        "B": "-554.75",
        "C": "12.205",
        "D": "0.00022368",
        "E": "-7.8562E-08",
        "Tmin": "273",
        "Tmax": "1500"
    },
    "SecondVirialCoefficient": {
        "eqno": "104",
        "A": "0.12638",
        "B": "-182.9",
        "C": "-38.105",
        "D": "-22568",
        "E": "37297",
        "Tmin": "296.5",
        "Tmax": "1899.5"
    },
    "LiquidViscosity": {
        "eqno": "101",
        "A": "-9.2076",
        "B": "2247.2",
        "C": "-0.93509",
        "D": "0.0000071501",
        "E": "2",
        "Tmin": "284.29",
        "Tmax": "550"
    },
    "VaporViscosity": {
        "eqno": "102",
        "A": "2.0005E-07",
        "B": "0.70929",
        "C": "192.67",
        "D": "-6383.4",
        "Tmin": "284.29",
        "Tmax": "1000"
    },
    "LiquidThermalConductivity": {
        "eqno": "16",
        "A": "0.020715",
        "B": "-158.25",
        "C": "0.1953",
        "D": "-0.004385",
        "E": "0.0000010035",
        "Tmin": "284.29",
        "Tmax": "390.41"
    },
    "VaporThermalConductivity": {
        "eqno": "102",
        "A": "0.16528",
        "B": "0.18013",
        "C": "3835.1",
        "D": "1598900",
        "Tmin": "284.29",
        "Tmax": "1000"
    },
    "SurfaceTension": {
        "eqno": "16",
        "A": "-0.031818",
        "B": "-71.601",
        "C": "-1.8001",
        "D": "-0.00127",
        "E": "-0.0000022345",
        "Tmin": "284.29",
        "Tmax": "576.75"
    },
    "RPPHeatCapacityCp": {
        "eqno": "4",
        "A": "13229",
        "B": "307.67",
        "C": "-0.16317",
        "D": "0.000033422",
        "Tmin": "273",
        "Tmax": "1500"
    },
    "RelativeStaticPermittivity": {
        "eqno": "120",
        "A": "-16.9316",
        "B": "-8000",
        "C": "-48",
        "Tmin": "271.9278",
        "Tmax": "441.9278"
    },
    "AntoineVaporPressure": {
        "eqno": "10",
        "A": "22.176",
        "B": "3547.8",
        "C": "-57.244",
        "Tmin": "356.35",
        "Tmax": "528.01"
    },
    "LiquidViscosityRPS": {
        "eqno": "12",
        "A": "-2.9318",
        "B": "-0.012454",
        "Tmin": "284.29",
        "Tmax": "483.15"
    },
    "COSTALDVolume": "0.2203",
    "DiameterLJ": "4.064853E-10",
    "EnergyLJ": "771.612",
    "RacketParameter": "0.25944",
    "FullerVolume": "56.533",
    "MatthiasCopemanC2": "-1.7134",
    "Parachor": "0.0304359",
    "SpecificGravity": "1.17431",
    "Charge": "0",
    "UniquacR": "2.7384",
    "UniquacQ": "2.472",
    "MatthiasCopemanC3": "3.1081",
    "UnifacVLE": {
        "group": "2"
    },
    "Asog": {
        "group": "2"
    },
    "Umr": {
        "group": "2"
    },
    "ModifiedUnifac": {
        "group": "2"
    },
    "CAS": "107-15-3",
    "Smiles": "NCCN"
}