{
    "LibraryIndex": "917",
    "CompoundID": "Fluorine",
    "StructureFormula": "F2",
    "Family": "24",
    "CriticalTemperature": "144.3",
    "CriticalPressure": "5215000",
    "CriticalVolume": "0.0662",
    "CriticalCompressibility": "0.288",
    "NormalBoilingPointTemperature": "84.95",
    "NormalMeltingPointTemperature": "53.53",
    "TriplePointTemperature": "53.48",
    "TriplePointPressure": "252",
    "MolecularWeight": "37.9968",
    "LiquidVolumeAtNormalBoilingPoint": "0.02516",
    "AcentricityFactor": "0.051",
    "RadiusOfGyration": "9.081E-11",
    "SolubilityParameter": "15210",
    "DipoleMoment": "0",
    "VanDerWaalsVolume": "0.0142",
    "VanDerWaalsArea": "2.5E+08",
    "HeatOfFormation": "0",
    "GibbsEnergyOfFormation": "0",
    "AbsEntropy": "202690",
    "HeatOfFusionAtMeltingPoint": "510360",
    "MatthiasCopemanC1": "0.57194",
    "HeatOfCombustion": "0",
    "SolidDensity": {
        "eqno": "2",
        "A": "54.682",
        "B": "-0.11345",
        "C": "0",
        "D": "0",
        "E": "0",
        "Tmin": "23",
        "Tmax": "53.48"
    },
    "LiquidDensity": {
        "eqno": "105",
        "A": "2.7003",
        "B": "0.23171",
        "C": "144.42",
        "D": "0.21541",
        "Tmin": "53.48",
        "Tmax": "144.41"
    },
    "VaporPressure": {
        "eqno": "101",
        "A": "19.18299",
        "B": "-840.6862",
        "C": "0.560464",
        "D": "-0.0000352006",
        "E": "2",
        "Tmin": "53.45",
        "Tmax": "144.41"
    },
    "HeatOfVaporization": {
        "eqno": "106",
        "A": "2.7497E+07",
        "B": "7.2112",
        "C": "-17.699",
        "D": "17.895",
        "E": "-6.7781",
        "Tmin": "53.48",
        "Tmax": "144.41"
    },
    "SolidHeatCapacityCp": {
        "eqno": "100",
        "A": "-25122",
        "B": "3384",
        "C": "-116.81",
        "D": "2.5952",
        "E": "-0.020438",
        "Tmin": "15",
        "Tmax": "53.54"
    },
    "LiquidHeatCapacityCp": {
        "eqno": "16",
        "A": "56031",
        "B": "-8382.1",
        "C": "267.49",
        "D": "-2.7228",
        "E": "0.0096889",
        "Tmin": "53.48",
        "Tmax": "110"
    },
    "IdealGasHeatCapacityCp": {
        "eqno": "16",
        "A": "29021.05",
        "B": "-721.5995",
        "C": "10.44015",
        "D": "-0.00105401",
        "E": "3.331903E-07",
        "Tmin": "50",
        "Tmax": "1500"
    },
    "SecondVirialCoefficient": {
        "eqno": "104",
        "A": "0.03545",
        "B": "-12.768",
        "C": "-0.0732",
        "D": "0.032456",
        "E": "-0.023131",
        "Tmin": "79.37",
        "Tmax": "1500"
    },
    "LiquidViscosity": {
        "eqno": "101",
        "A": "9.2895",
        "B": "-86.903",
        "C": "-3.7445",
        "D": "0.0000058477",
        "E": "2",
        "Tmin": "53.48",
        "Tmax": "140"
    },
    "VaporViscosity": {
        "eqno": "102",
        "A": "7.0875E-07",
        "B": "0.64956",
        "C": "73.747",
        "D": "-637.02",
        "Tmin": "53.48",
        "Tmax": "1000"
    },
    "LiquidThermalConductivity": {
        "eqno": "16",
        "A": "-0.15422",
        "B": "9.0003",
        "C": "-1.0608",
        "D": "-0.0018487",
        "E": "-0.00001682",
        "Tmin": "50",
        "Tmax": "130"
    },
    "VaporThermalConductivity": {
        "eqno": "102",
        "A": "0.00012664",
        "B": "0.93229",
        "C": "1.6645",
        "D": "205.53",
        "Tmin": "70",
        "Tmax": "700"
    },
    "SurfaceTension": {
        "eqno": "16",
        "A": "-0.0023955",
        "B": "117.16",
        "C": "-8.211",
        "D": "0.06394",
        "E": "-0.00037668",
        "Tmin": "53.48",
        "Tmax": "144.12"
    },
    "RPPHeatCapacityCp": {
        "eqno": "100",
        "A": "27829",
        "B": "3.8829",
        "C": "0.043734",
        "D": "-0.000066017",
        "E": "2.7438E-08",
        "Tmin": "50",
        "Tmax": "1000"
    },
    "AntoineVaporPressure": {
        "eqno": "10",
        "A": "20.897",
        "B": "777.75",
        "C": "-1.967",
        "Tmin": "86.6",
        "Tmax": "129.81"
    },
    "LiquidViscosityRPS": {
        "eqno": "12",
        "A": "-5.905",
        "B": "-0.027953",
        "Tmin": "53.48",
        "Tmax": "140"
    },
    "COSTALDVolume": "0.0756619",
    "DiameterLJ": "3.361966E-10",
    "EnergyLJ": "106.6577",
    "RacketParameter": "0.288",
    "FullerVolume": "29.4",
    "MatthiasCopemanC2": "0",
    "Parachor": "0.00883306",
    "SpecificGravity": "1.5",
    "Charge": "0",
    "CostaldAcentricFactor": "0.051",
    "WilsonVolume": "0.02516",
    "UniquacR": "0.75",
    "UniquacQ": "0.88",
    "MatthiasCopemanC3": "0",
    "ChaoSeaderAcentricFactor": "0.051",
    "ChaoSeaderSolubilityParameter": "15210",
    "ChaoSeaderLiquidVolume": "0.02516",
    "Umr": {
        "group": "1"
    },
    "CAS": "7782-41-4",
    "Smiles": "FF"
}