{
    "LibraryIndex": "738",
    "CompoundID": "Fluorene",
    "StructureFormula": "(C6H4)CH2(C6H4)",
    "Family": "20",
    "CriticalTemperature": "826",
    "CriticalPressure": "3000000",
    "CriticalVolume": "0.524",
    "CriticalCompressibility": "0.229",
    "NormalBoilingPointTemperature": "570.44",
    "NormalMeltingPointTemperature": "387.94",
    "TriplePointTemperature": "387.94",
    "TriplePointPressure": "281.665",
    "MolecularWeight": "166.2185",
    "LiquidVolumeAtNormalBoilingPoint": "0.15327",
    "AcentricityFactor": "0.404163",
    "RadiusOfGyration": "4.806E-10",
    "SolubilityParameter": "19820",
    "DipoleMoment": "8.3E-31",
    "VanDerWaalsVolume": "0.09367",
    "VanDerWaalsArea": "1.019E+09",
    "HeatOfFormation": "1.869E+08",
    "GibbsEnergyOfFormation": "2.901E+08",
    "AbsEntropy": "381500",
    "HeatOfFusionAtMeltingPoint": "1.9578E+07",
    "MatthiasCopemanC1": "0.95089",
    "HeatOfCombustion": "-6.4251E+09",
    "SolidDensity": {
        "eqno": "2",
        "A": "7.2313",
        "B": "-2.9598E-09",
        "Tmin": "293.15",
        "Tmax": "302.65"
    },
    "LiquidDensity": {
        "eqno": "105",
        "A": "0.43683",
        "B": "0.229",
        "C": "826",
        "D": "0.28571",
        "Tmin": "387.94",
        "Tmax": "826"
    },
    "VaporPressure": {
        "eqno": "101",
        "A": "141.8746",
        "B": "-13833.84",
        "C": "-17.04805",
        "D": "0.0000063782",
        "E": "2",
        "Tmin": "387.94",
        "Tmax": "870"
    },
    "HeatOfVaporization": {
        "eqno": "106",
        "A": "9.581E+07",
        "B": "1.317",
        "C": "-1.4739",
        "D": "-0.0034969",
        "E": "0.61586",
        "Tmin": "387.94",
        "Tmax": "826"
    },
    "SolidHeatCapacityCp": {
        "eqno": "100",
        "A": "181.01",
        "B": "986.6",
        "C": "-3.6964",
        "D": "0.012043",
        "E": "-0.000010424",
        "Tmin": "98.37",
        "Tmax": "387.94"
    },
    "LiquidHeatCapacityCp": {
        "eqno": "16",
        "A": "172320",
        "B": "813.11",
        "C": "3.2969",
        "D": "0.023275",
        "E": "-0.000018014",
        "Tmin": "387.94",
        "Tmax": "450"
    },
    "IdealGasHeatCapacityCp": {
        "eqno": "16",
        "A": "57825",
        "B": "-560.42",
        "C": "13.575",
        "D": "-0.00027161",
        "E": "7.5804E-08",
        "Tmin": "200",
        "Tmax": "1500"
    },
    "SecondVirialCoefficient": {
        "eqno": "104",
        "A": "-1.7303",
        "B": "1592",
        "C": "-617.99",
        "D": "-13420",
        "E": "-481950",
        "Tmin": "260",
        "Tmax": "800"
    },
    "LiquidViscosity": {
        "eqno": "101",
        "A": "-33.053",
        "B": "2454.9",
        "C": "3.4575",
        "D": "-0.0000042581",
        "E": "2",
        "Tmin": "387.94",
        "Tmax": "570.44"
    },
    "VaporViscosity": {
        "eqno": "102",
        "A": "5.7084E-07",
        "B": "0.56204",
        "C": "373.69",
        "D": "-49.196",
        "Tmin": "570.44",
        "Tmax": "1000"
    },
    "LiquidThermalConductivity": {
        "eqno": "16",
        "A": "-0.013258",
        "B": "-130.68",
        "C": "-0.68476",
        "D": "-0.0022566",
        "E": "3.0043E-07",
        "Tmin": "387.94",
        "Tmax": "570.44"
    },
    "VaporThermalConductivity": {
        "eqno": "102",
        "A": "0.00017437",
        "B": "0.9152",
        "C": "500.25",
        "D": "62613",
        "Tmin": "387.94",
        "Tmax": "1000"
    },
    "SurfaceTension": {
        "eqno": "16",
        "A": "-0.0067753",
        "B": "569.69",
        "C": "-6.1981",
        "D": "0.007814",
        "E": "-0.000008755",
        "Tmin": "387.94",
        "Tmax": "826"
    },
    "RPPHeatCapacityCp": {
        "eqno": "4",
        "A": "-79598",
        "B": "1036.6",
        "C": "-0.70705",
        "D": "0.00017819",
        "Tmin": "200",
        "Tmax": "1500"
    },
    "AntoineVaporPressure": {
        "eqno": "10",
        "A": "20.876",
        "B": "4244",
        "C": "-116.23",
        "Tmin": "503.15",
        "Tmax": "733.78"
    },
    "LiquidViscosityRPS": {
        "eqno": "13",
        "A": "-1.1567",
        "B": "-0.019014",
        "C": "0.000011754",
        "Tmin": "387.94",
        "Tmax": "570.44"
    },
    "COSTALDVolume": "0.517307",
    "DiameterLJ": "8.821711E-10",
    "EnergyLJ": "267.486",
    "FullerVolume": "193.2",
    "MatthiasCopemanC2": "1.5595",
    "Parachor": "0.0651",
    "SpecificGravity": "1.29618",
    "Charge": "0",
    "CostaldAcentricFactor": "0.349259",
    "WilsonVolume": "0.128237",
    "UniquacR": "6.174687",
    "UniquacQ": "4.076",
    "MatthiasCopemanC3": "-3.571",
    "ChaoSeaderAcentricFactor": "0.349259",
    "ChaoSeaderSolubilityParameter": "21645.7",
    "ChaoSeaderLiquidVolume": "0.128237",
    "UnifacVLE": {
        "group": "1"
    },
    "UnifacLLE": {
        "group": "1"
    },
    "Asog": {
        "group": "4"
    },
    "GCmethod": {
        "group": "1"
    },
    "Umr": {
        "group": "1"
    },
    "ModifiedUnifac": {
        "group": "1"
    },
    "CAS": "86-73-7",
    "Smiles": "C1=CC=CC2=C1C(C=CC=C3)=C3C2"
}