{
    "LibraryIndex": "1001",
    "CompoundID": "Formaldehyde",
    "StructureFormula": "HCHO",
    "Family": "25",
    "CriticalTemperature": "408",
    "CriticalPressure": "6590000",
    "CriticalVolume": "0.115",
    "CriticalCompressibility": "0.223",
    "NormalBoilingPointTemperature": "254.05",
    "NormalMeltingPointTemperature": "181.15",
    "TriplePointTemperature": "181.15",
    "TriplePointPressure": "887",
    "MolecularWeight": "30.02598",
    "LiquidVolumeAtNormalBoilingPoint": "0.04097",
    "AcentricityFactor": "0.281846",
    "RadiusOfGyration": "1.215E-10",
    "SolubilityParameter": "21190",
    "DipoleMoment": "7.77E-30",
    "VanDerWaalsVolume": "0.0186",
    "VanDerWaalsArea": "3.09E+08",
    "HeatOfFormation": "-1.086E+08",
    "GibbsEnergyOfFormation": "-1.026E+08",
    "AbsEntropy": "218660",
    "HeatOfFusionAtMeltingPoint": "7050000",
    "MatthiasCopemanC1": "0.86009",
    "HeatOfCombustion": "-5.268E+08",
    "SolidDensity": {
        "eqno": "2",
        "A": "39.262",
        "B": "-0.024084",
        "Tmin": "72.46",
        "Tmax": "181.15"
    },
    "LiquidDensity": {
        "eqno": "105",
        "A": "1.9413",
        "B": "0.22308",
        "C": "408",
        "D": "0.28569",
        "Tmin": "181.15",
        "Tmax": "396.06"
    },
    "VaporPressure": {
        "eqno": "101",
        "A": "62.07923",
        "B": "-4207.675",
        "C": "-6.202287",
        "D": "5.521233E-06",
        "E": "2",
        "Tmin": "163.7",
        "Tmax": "408"
    },
    "HeatOfVaporization": {
        "eqno": "106",
        "A": "3.0902E+07",
        "B": "0.29722",
        "C": "-0.051281",
        "D": "0.13234",
        "E": "-0.080686",
        "Tmin": "181.15",
        "Tmax": "396.06"
    },
    "SolidHeatCapacityCp": {
        "eqno": "1",
        "A": "39430",
        "Tmin": "0",
        "Tmax": "0"
    },
    "LiquidHeatCapacityCp": {
        "eqno": "16",
        "A": "62716",
        "B": "-69.453",
        "C": "3.2871",
        "D": "0.047782",
        "E": "-0.0001008",
        "Tmin": "204",
        "Tmax": "304"
    },
    "IdealGasHeatCapacityCp": {
        "eqno": "16",
        "A": "33216.06",
        "B": "-1212.62",
        "C": "11.96032",
        "D": "-0.000635943",
        "E": "1.549232E-07",
        "Tmin": "50",
        "Tmax": "1500"
    },
    "SecondVirialCoefficient": {
        "eqno": "104",
        "A": "0.084764",
        "B": "-73.106",
        "C": "-5.8267",
        "D": "281.42",
        "E": "-763.84",
        "Tmin": "204",
        "Tmax": "2000"
    },
    "LiquidViscosity": {
        "eqno": "101",
        "A": "-11.303",
        "B": "753.06",
        "C": "-0.013733",
        "D": "-4.6837E-08",
        "E": "2",
        "Tmin": "181.15",
        "Tmax": "308"
    },
    "VaporViscosity": {
        "eqno": "102",
        "A": "8.1997E-07",
        "B": "0.57256",
        "C": "258.17",
        "D": "-5091",
        "Tmin": "181.15",
        "Tmax": "1000"
    },
    "LiquidThermalConductivity": {
        "eqno": "16",
        "A": "0.10999",
        "B": "-161.62",
        "C": "0.83463",
        "D": "-0.01142",
        "E": "0.0000060772",
        "Tmin": "204",
        "Tmax": "234"
    },
    "VaporThermalConductivity": {
        "eqno": "102",
        "A": "44.841",
        "B": "-0.71285",
        "C": "-3466.2",
        "D": "5262100",
        "Tmin": "181.15",
        "Tmax": "994.05"
    },
    "SurfaceTension": {
        "eqno": "16",
        "A": "-0.016101",
        "B": "136.53",
        "C": "-3.7004",
        "D": "0.0067657",
        "E": "-0.000021523",
        "Tmin": "181.15",
        "Tmax": "396.06"
    },
    "RPPHeatCapacityCp": {
        "eqno": "4",
        "A": "26385.98",
        "B": "18.47571",
        "C": "0.0478984",
        "D": "-0.000030852",
        "Tmin": "200",
        "Tmax": "1200"
    },
    "AntoineVaporPressure": {
        "eqno": "10",
        "A": "22.331",
        "B": "2684.7",
        "C": "-5.509",
        "Tmin": "244.9",
        "Tmax": "360.24"
    },
    "LiquidViscosityRPS": {
        "eqno": "13",
        "A": "-0.78709",
        "B": "-0.049255",
        "C": "0.000075747",
        "Tmin": "181.15",
        "Tmax": "254.05"
    },
    "COSTALDVolume": "0.10819",
    "DiameterLJ": "5.493448E-10",
    "EnergyLJ": "120.0801",
    "FullerVolume": "26.63",
    "MatthiasCopemanC2": "0",
    "Parachor": "0.0168",
    "SpecificGravity": "0.752445",
    "Charge": "0",
    "CostaldAcentricFactor": "0.26559",
    "WilsonVolume": "0.0369129",
    "UniquacR": "0.9183",
    "UniquacQ": "0.78",
    "MatthiasCopemanC3": "0",
    "ChaoSeaderAcentricFactor": "0.253",
    "ChaoSeaderSolubilityParameter": "23824.8",
    "ChaoSeaderLiquidVolume": "0.0369129",
    "UnifacVLE": {
        "group": "1"
    },
    "UnifacLLE": {
        "group": "1"
    },
    "Asog": {
        "group": "1"
    },
    "GCmethod": {
        "group": "1"
    },
    "Umr": {
        "group": "1"
    },
    "ModifiedUnifac": {
        "group": "1"
    },
    "CAS": "50-00-0",
    "Smiles": "C=O"
}