{
    "LibraryIndex": "1889",
    "CompoundID": "Furfural",
    "StructureFormula": "(OC4H3)CHO",
    "Family": "45",
    "CriticalTemperature": "670.15",
    "CriticalPressure": "5660000",
    "CriticalVolume": "0.252",
    "CriticalCompressibility": "0.256",
    "NormalBoilingPointTemperature": "434.85",
    "NormalMeltingPointTemperature": "236.65",
    "TriplePointTemperature": "236.65",
    "TriplePointPressure": "1.54565",
    "MolecularWeight": "96.08406",
    "LiquidVolumeAtNormalBoilingPoint": "0.0832248",
    "AcentricityFactor": "0.367784",
    "RadiusOfGyration": "3.35E-10",
    "SolubilityParameter": "23610",
    "DipoleMoment": "1.2E-29",
    "VanDerWaalsVolume": "0.04812",
    "VanDerWaalsArea": "6.25E+08",
    "HeatOfFormation": "-1.51E+08",
    "GibbsEnergyOfFormation": "-1.028E+08",
    "AbsEntropy": "333300",
    "HeatOfFusionAtMeltingPoint": "1.44E+07",
    "MatthiasCopemanC1": "1.4331",
    "HeatOfCombustion": "-2.2564E+09",
    "SolidDensity": {
        "eqno": "2",
        "A": "16.038",
        "B": "-0.0073899",
        "Tmin": "94.66",
        "Tmax": "236.65"
    },
    "LiquidDensity": {
        "eqno": "105",
        "A": "1.0614",
        "B": "0.26706",
        "C": "670.15",
        "D": "0.30028",
        "Tmin": "236.65",
        "Tmax": "647.33"
    },
    "VaporPressure": {
        "eqno": "101",
        "A": "25.656",
        "B": "-5514",
        "C": "-0.19573",
        "D": "-0.0000013402",
        "E": "2",
        "Tmin": "236.65",
        "Tmax": "670.15"
    },
    "HeatOfVaporization": {
        "eqno": "106",
        "A": "6.3009E+07",
        "B": "0.4784",
        "C": "0.066802",
        "D": "-0.59102",
        "E": "0.42453",
        "Tmin": "236.65",
        "Tmax": "647.33"
    },
    "SolidHeatCapacityCp": {
        "eqno": "100",
        "A": "6836.7",
        "B": "503.49",
        "C": "-0.0034192",
        "D": "-0.0033694",
        "E": "0.0000088513",
        "Tmin": "50",
        "Tmax": "236.65"
    },
    "LiquidHeatCapacityCp": {
        "eqno": "16",
        "A": "122630",
        "B": "404.51",
        "C": "3.0587",
        "D": "0.029945",
        "E": "-0.000031496",
        "Tmin": "246.56",
        "Tmax": "471.95"
    },
    "IdealGasHeatCapacityCp": {
        "eqno": "16",
        "A": "45855",
        "B": "-497.61",
        "C": "12.549",
        "D": "-0.000033724",
        "E": "-2.8785E-08",
        "Tmin": "100",
        "Tmax": "1500"
    },
    "SecondVirialCoefficient": {
        "eqno": "104",
        "A": "0.15692",
        "B": "-204.6",
        "C": "-63.981",
        "D": "-111350",
        "E": "220560",
        "Tmin": "335.07",
        "Tmax": "1500"
    },
    "LiquidViscosity": {
        "eqno": "101",
        "A": "2.6487",
        "B": "910.16",
        "C": "-2.1754",
        "D": "0.0000028413",
        "E": "2",
        "Tmin": "236.65",
        "Tmax": "536.12"
    },
    "VaporViscosity": {
        "eqno": "102",
        "A": "5.1928E-08",
        "B": "0.91224",
        "C": "70.285",
        "D": "-5476.4",
        "Tmin": "236.65",
        "Tmax": "1000"
    },
    "LiquidThermalConductivity": {
        "eqno": "16",
        "A": "0.13228",
        "B": "19058",
        "C": "-182.25",
        "D": "0.56426",
        "E": "-0.00059782",
        "Tmin": "293.15",
        "Tmax": "466.63"
    },
    "VaporThermalConductivity": {
        "eqno": "102",
        "A": "0.00022183",
        "B": "0.91119",
        "C": "617.18",
        "D": "55137",
        "Tmin": "236.65",
        "Tmax": "1000"
    },
    "SurfaceTension": {
        "eqno": "16",
        "A": "-0.023307",
        "B": "51.068",
        "C": "-2.7476",
        "D": "0.00047578",
        "E": "-0.000003172",
        "Tmin": "236.65",
        "Tmax": "647.33"
    },
    "RPPHeatCapacityCp": {
        "eqno": "4",
        "A": "4779.126",
        "B": "385.556",
        "C": "-0.233346",
        "D": "0.0000499707",
        "Tmin": "50",
        "Tmax": "1500"
    },
    "RelativeStaticPermittivity": {
        "eqno": "120",
        "A": "4",
        "B": "-10000",
        "C": "-50",
        "Tmin": "293",
        "Tmax": "670"
    },
    "AntoineVaporPressure": {
        "eqno": "10",
        "A": "22.467",
        "B": "4392.1",
        "C": "-32.683",
        "Tmin": "405.3",
        "Tmax": "601.7"
    },
    "LiquidViscosityRPS": {
        "eqno": "13",
        "A": "0.70056",
        "B": "-0.032345",
        "C": "0.000028487",
        "Tmin": "236.65",
        "Tmax": "536.12"
    },
    "COSTALDVolume": "0.255652",
    "DiameterLJ": "6.046311E-10",
    "EnergyLJ": "324.1523",
    "RacketParameter": "0.258287",
    "FullerVolume": "100.96",
    "MatthiasCopemanC2": "-2.25422",
    "Parachor": "0.0384",
    "SpecificGravity": "1.15394",
    "Charge": "0",
    "CostaldAcentricFactor": "0.383",
    "WilsonVolume": "0.08323",
    "UniquacR": "3.168",
    "UniquacQ": "2.484",
    "UniquacQP": "2.484",
    "MatthiasCopemanC3": "3.5842",
    "ChaoSeaderAcentricFactor": "0.383",
    "ChaoSeaderSolubilityParameter": "23643.5",
    "ChaoSeaderLiquidVolume": "0.0831649",
    "UnifacVLE": {
        "group": "1"
    },
    "UnifacLLE": {
        "group": "1"
    },
    "Asog": {
        "group": "1"
    },
    "GCmethod": {
        "group": "1"
    },
    "Umr": {
        "group": "1"
    },
    "ModifiedUnifac": {
        "group": "1"
    },
    "CAS": "98-01-1",
    "Smiles": "O1C=CC=C1(C=O)"
}