{
    "LibraryIndex": "1231",
    "CompoundID": "Glycerol",
    "StructureFormula": "HOCH2CH(OH)CH2OH",
    "Family": "49",
    "CriticalTemperature": "850",
    "CriticalPressure": "6660000",
    "CriticalVolume": "0.264",
    "CriticalCompressibility": "0.28",
    "NormalBoilingPointTemperature": "563.15",
    "NormalMeltingPointTemperature": "291.15",
    "TriplePointTemperature": "291.33",
    "TriplePointPressure": "0.00952225",
    "MolecularWeight": "92.09382",
    "LiquidVolumeAtNormalBoilingPoint": "0.0732027",
    "AcentricityFactor": "1.544133",
    "RadiusOfGyration": "3.52E-10",
    "SolubilityParameter": "34540",
    "DipoleMoment": "1.4E-29",
    "VanDerWaalsVolume": "0.05136",
    "VanDerWaalsArea": "7.65E+08",
    "HeatOfFormation": "-5.828E+08",
    "GibbsEnergyOfFormation": "-4.471E+08",
    "AbsEntropy": "396000",
    "HeatOfFusionAtMeltingPoint": "1.831E+07",
    "HeatOfCombustion": "-1.477E+09",
    "SolidDensity": {
        "eqno": "2",
        "A": "15.131",
        "B": "-0.002161",
        "C": "0",
        "D": "0",
        "E": "0",
        "Tmin": "90.15",
        "Tmax": "291.15"
    },
    "LiquidDensity": {
        "eqno": "105",
        "A": "0.933664",
        "B": "0.246209",
        "C": "850",
        "D": "0.220672",
        "E": "0",
        "Tmin": "291.33",
        "Tmax": "850"
    },
    "VaporPressure": {
        "eqno": "101",
        "A": "99.57469",
        "B": "-13673.87",
        "C": "-10.07",
        "D": "1.227718E-11",
        "E": "2",
        "Tmin": "291.33",
        "Tmax": "850"
    },
    "HeatOfVaporization": {
        "eqno": "106",
        "A": "1.123245E+08",
        "B": "1.032674",
        "C": "-2.401706",
        "D": "3.408528",
        "E": "-1.535068",
        "Tmin": "291.33",
        "Tmax": "850"
    },
    "SolidHeatCapacityCp": {
        "eqno": "4",
        "A": "-14764.07",
        "B": "1034.972",
        "C": "-4.074509",
        "D": "0.00802715",
        "E": "0",
        "Tmin": "25.25",
        "Tmax": "273.15"
    },
    "LiquidHeatCapacityCp": {
        "eqno": "16",
        "A": "115.6361",
        "B": "-33.33621",
        "C": "11.80006",
        "D": "0.00238285",
        "E": "-0.0000010098",
        "Tmin": "187.4",
        "Tmax": "560.9999"
    },
    "IdealGasHeatCapacityCp": {
        "eqno": "16",
        "A": "31366.31",
        "B": "-311.2541",
        "C": "12.31511",
        "D": "0.000195602",
        "E": "1.752076E-09",
        "Tmin": "273",
        "Tmax": "1200.15"
    },
    "SecondVirialCoefficient": {
        "eqno": "104",
        "A": "0.151103",
        "B": "-224.6228",
        "C": "-138.7965",
        "D": "-370017.6",
        "E": "689661.3",
        "Tmin": "425",
        "Tmax": "1500"
    },
    "LiquidViscosity": {
        "eqno": "10",
        "A": "-27",
        "B": "-10000",
        "C": "70",
        "Tmin": "260",
        "Tmax": "500"
    },
    "VaporViscosity": {
        "eqno": "16",
        "A": "1.418624E-06",
        "B": "-375.5227",
        "C": "-11.1197",
        "D": "0.000710923",
        "E": "4.531819E-08",
        "Tmin": "291.33",
        "Tmax": "999.9998"
    },
    "LiquidThermalConductivity": {
        "eqno": "16",
        "A": "0.00821317",
        "B": "-13.47096",
        "C": "-1.285018",
        "D": "0.000197192",
        "E": "1.226656E-07",
        "Tmin": "293.15",
        "Tmax": "550.0002"
    },
    "VaporThermalConductivity": {
        "eqno": "16",
        "A": "-0.00880104",
        "B": "-445.7976",
        "C": "-2.857337",
        "D": "0.000677005",
        "E": "8.722756E-08",
        "Tmin": "274",
        "Tmax": "1000"
    },
    "SurfaceTension": {
        "eqno": "16",
        "A": "0.00257537",
        "B": "-91.44758",
        "C": "-2.249489",
        "D": "0.000263632",
        "E": "-0.0000036975",
        "Tmin": "291.33",
        "Tmax": "453.1501"
    },
    "RPPHeatCapacityCp": {
        "eqno": "4",
        "A": "-79.42597",
        "B": "492.8435",
        "C": "-0.403453",
        "D": "0.000139591",
        "E": "0",
        "Tmin": "273",
        "Tmax": "1200"
    },
    "RelativeStaticPermittivity": {
        "eqno": "120",
        "A": "-18.591",
        "B": "-10000",
        "C": "-139.59",
        "Tmin": "274",
        "Tmax": "444"
    },
    "AntoineVaporPressure": {
        "eqno": "10",
        "A": "26.02717",
        "B": "7444.483",
        "C": "-48.3386",
        "Tmin": "280",
        "Tmax": "600"
    },
    "LiquidViscosityRPS": {
        "eqno": "10",
        "A": "-27",
        "B": "-10000",
        "C": "70",
        "D": "0",
        "E": "0",
        "Tmin": "231.15",
        "Tmax": "473.15"
    },
    "FullerVolume": "84.50999",
    "SpecificGravity": "1.26078",
    "CostaldAcentricFactor": "1.544133",
    "UniquacR": "3.385629",
    "UniquacQ": "3.06",
    "UnifacVLE": {
        "group": "3"
    },
    "UnifacLLE": {
        "group": "3"
    },
    "Asog": {
        "group": "3"
    },
    "GCmethod": {
        "group": "3"
    },
    "Umr": {
        "group": "3"
    },
    "ModifiedUnifac": {
        "group": "3"
    },
    "CAS": "56-81-5",
    "Smiles": "C(C(CO)O)O"
}