{
    "LibraryIndex": "913",
    "CompoundID": "Helium-4",
    "StructureFormula": "He",
    "Family": "24",
    "CriticalTemperature": "5.19",
    "CriticalPressure": "227000",
    "CriticalVolume": "0.0573",
    "CriticalCompressibility": "0.301",
    "NormalBoilingPointTemperature": "4.3",
    "NormalMeltingPointTemperature": "1.763",
    "TriplePointTemperature": "1.763",
    "TriplePointPressure": "1478.21",
    "MolecularWeight": "4.002602",
    "LiquidVolumeAtNormalBoilingPoint": "0.03254",
    "AcentricityFactor": "-0.39",
    "RadiusOfGyration": "0",
    "SolubilityParameter": "1222",
    "DipoleMoment": "0",
    "VanDerWaalsVolume": "0.00692",
    "VanDerWaalsArea": "1.48E+08",
    "HeatOfFormation": "0",
    "GibbsEnergyOfFormation": "0",
    "AbsEntropy": "126044",
    "HeatOfFusionAtMeltingPoint": "50000",
    "MatthiasCopemanC1": "-0.1555",
    "HeatOfCombustion": "0",
    "SolidDensity": {
        "eqno": "2",
        "A": "47.969",
        "B": "7.3751E-08",
        "C": "0",
        "D": "0",
        "E": "0",
        "Tmin": "1.73",
        "Tmax": "11.23"
    },
    "LiquidDensity": {
        "eqno": "105",
        "A": "0.31844",
        "B": "0.089499",
        "C": "5.21",
        "D": "0.063807",
        "Tmin": "1.2",
        "Tmax": "5.2"
    },
    "VaporPressure": {
        "eqno": "101",
        "A": "8.8804",
        "B": "-4.8932",
        "C": "2.5648",
        "D": "0.0062779",
        "E": "2",
        "Tmin": "1.4",
        "Tmax": "11.26"
    },
    "HeatOfVaporization": {
        "eqno": "106",
        "A": "191120",
        "B": "4.6881",
        "C": "-12.652",
        "D": "12.947",
        "E": "-4.5859",
        "Tmin": "2.2",
        "Tmax": "5.18"
    },
    "LiquidHeatCapacityCp": {
        "eqno": "16",
        "A": "-72432",
        "B": "14.864",
        "C": "0.90909",
        "D": "1.9106",
        "E": "-0.057997",
        "Tmin": "3.7",
        "Tmax": "11.7"
    },
    "IdealGasHeatCapacityCp": {
        "eqno": "1",
        "A": "20786",
        "B": "0",
        "C": "0",
        "D": "0",
        "E": "0",
        "Tmin": "1",
        "Tmax": "1500"
    },
    "SecondVirialCoefficient": {
        "eqno": "104",
        "A": "0.016091",
        "B": "-0.3836",
        "C": "-3.2519E-07",
        "D": "3.3839E-14",
        "E": "-6.7038E-16",
        "Tmin": "2",
        "Tmax": "150"
    },
    "LiquidViscosity": {
        "eqno": "101",
        "A": "-21.436",
        "B": "10.949",
        "C": "5.7389",
        "D": "-0.11646",
        "E": "2",
        "Tmin": "2.2",
        "Tmax": "11.7"
    },
    "VaporViscosity": {
        "eqno": "102",
        "A": "3.3098E-07",
        "B": "0.71183",
        "C": "-10.485",
        "D": "126.3",
        "Tmin": "14.4",
        "Tmax": "2000"
    },
    "LiquidThermalConductivity": {
        "eqno": "16",
        "A": "-0.19278",
        "B": "-0.8853",
        "C": "-0.83633",
        "D": "-0.19115",
        "E": "0.016867",
        "Tmin": "2.2",
        "Tmax": "11.7"
    },
    "VaporThermalConductivity": {
        "eqno": "102",
        "A": "0.00226",
        "B": "0.7305",
        "C": "-18.63",
        "D": "440",
        "Tmin": "30",
        "Tmax": "2000"
    },
    "SurfaceTension": {
        "eqno": "16",
        "A": "0.00015359",
        "B": "-20.248",
        "C": "20.138",
        "D": "-11.865",
        "E": "1.2499",
        "Tmin": "1.25",
        "Tmax": "4.7"
    },
    "RPPHeatCapacityCp": {
        "eqno": "4",
        "A": "20786",
        "B": "7.6827E-14",
        "C": "-1.6203E-16",
        "D": "2.6645E-20",
        "Tmin": "100",
        "Tmax": "1500"
    },
    "RelativeStaticPermittivity": {
        "eqno": "1",
        "A": "1.055",
        "Tmin": "1",
        "Tmax": "1500"
    },
    "AntoineVaporPressure": {
        "eqno": "10",
        "A": "15.213",
        "B": "15.497",
        "C": "-0.0068635",
        "Tmin": "3.15",
        "Tmax": "4.6"
    },
    "LiquidViscosityRPS": {
        "eqno": "2",
        "A": "0",
        "B": "0",
        "Tmin": "2.2",
        "Tmax": "11.7"
    },
    "COSTALDVolume": "0.037046",
    "DiameterLJ": "3.038669E-10",
    "EnergyLJ": "4.496969",
    "RacketParameter": "0.236658",
    "FullerVolume": "2.67",
    "MatthiasCopemanC2": "0",
    "Parachor": "0.00399858",
    "SpecificGravity": "0.124064",
    "Charge": "0",
    "CostaldAcentricFactor": "-0.39",
    "WilsonVolume": "0.03254",
    "UniquacR": "0.456163",
    "UniquacQ": "0.592",
    "MatthiasCopemanC3": "0",
    "ChaoSeaderAcentricFactor": "-0.39",
    "ChaoSeaderSolubilityParameter": "1222",
    "ChaoSeaderLiquidVolume": "0.03254",
    "GCmethod": {
        "group": "1"
    },
    "Umr": {
        "group": "1"
    },
    "CAS": "7440-59-7",
    "Smiles": "[He]"
}