{
    "LibraryIndex": "1904",
    "CompoundID": "Hydrogen chloride",
    "StructureFormula": "HCl",
    "Family": "77",
    "CriticalTemperature": "324.69",
    "CriticalPressure": "8310000",
    "CriticalVolume": "0.081",
    "CriticalCompressibility": "0.249",
    "NormalBoilingPointTemperature": "188.15",
    "NormalMeltingPointTemperature": "158.97",
    "TriplePointTemperature": "158.97",
    "TriplePointPressure": "13521.9",
    "MolecularWeight": "36.46094",
    "LiquidVolumeAtNormalBoilingPoint": "0.03028",
    "AcentricityFactor": "0.126",
    "RadiusOfGyration": "2.09E-11",
    "SolubilityParameter": "12190",
    "DipoleMoment": "3.6E-30",
    "VanDerWaalsVolume": "0.01602",
    "VanDerWaalsArea": "2.75E+08",
    "HeatOfFormation": "-9.231E+07",
    "GibbsEnergyOfFormation": "-9.53E+07",
    "AbsEntropy": "186786",
    "HeatOfFusionAtMeltingPoint": "2000000",
    "MatthiasCopemanC1": "0.66635",
    "HeatOfCombustion": "-2.86E+07",
    "SolidDensity": {
        "eqno": "2",
        "A": "41.04",
        "B": "-0.0070156",
        "Tmin": "103.15",
        "Tmax": "158.97"
    },
    "LiquidDensity": {
        "eqno": "105",
        "A": "2.3619",
        "B": "0.23301",
        "C": "324.69",
        "D": "0.25076",
        "Tmin": "158.97",
        "Tmax": "324.44"
    },
    "VaporPressure": {
        "eqno": "101",
        "A": "138.2562",
        "B": "-4825.245",
        "C": "-19.73669",
        "D": "0.0000650759",
        "E": "2",
        "Tmin": "142.85",
        "Tmax": "324.65"
    },
    "HeatOfVaporization": {
        "eqno": "106",
        "A": "1.9563E+07",
        "B": "-0.79988",
        "C": "3.8907",
        "D": "-4.9768",
        "E": "2.2266",
        "Tmin": "158.97",
        "Tmax": "324.65"
    },
    "SolidHeatCapacityCp": {
        "eqno": "100",
        "A": "-10811",
        "B": "1080.6",
        "C": "-9.6311",
        "D": "0.047728",
        "E": "-0.000091003",
        "Tmin": "100",
        "Tmax": "158"
    },
    "LiquidHeatCapacityCp": {
        "eqno": "16",
        "A": "-53340",
        "B": "265.92",
        "C": "4.243",
        "D": "0.058092",
        "E": "-0.00013923",
        "Tmin": "158.97",
        "Tmax": "188.13"
    },
    "IdealGasHeatCapacityCp": {
        "eqno": "16",
        "A": "29096.99",
        "B": "-1271.123",
        "C": "6.610209",
        "D": "0.00378635",
        "E": "-0.0000013094",
        "Tmin": "20",
        "Tmax": "1600"
    },
    "SecondVirialCoefficient": {
        "eqno": "104",
        "A": "0.041738",
        "B": "-31.981",
        "C": "-2.0074",
        "D": "-28.378",
        "E": "43.867",
        "Tmin": "159.05",
        "Tmax": "1622.33"
    },
    "LiquidViscosity": {
        "eqno": "101",
        "A": "-196.43",
        "B": "5474.4",
        "C": "31.068",
        "D": "-0.000094243",
        "E": "2",
        "Tmin": "158.97",
        "Tmax": "318.15"
    },
    "VaporViscosity": {
        "eqno": "102",
        "A": "5.1969E-07",
        "B": "0.66444",
        "C": "177.83",
        "D": "-3965.9",
        "Tmin": "200",
        "Tmax": "1000"
    },
    "LiquidThermalConductivity": {
        "eqno": "16",
        "A": "-0.4993",
        "B": "-113.3",
        "C": "0.99185",
        "D": "-0.0023549",
        "E": "-0.0000033612",
        "Tmin": "273.15",
        "Tmax": "323.15"
    },
    "VaporThermalConductivity": {
        "eqno": "102",
        "A": "0.0017816",
        "B": "0.5013",
        "C": "331.03",
        "D": "3750.8",
        "Tmin": "158.97",
        "Tmax": "700"
    },
    "SurfaceTension": {
        "eqno": "16",
        "A": "-0.0056361",
        "B": "317.9",
        "C": "-7.6858",
        "D": "0.026562",
        "E": "-0.00006761",
        "Tmin": "158.97",
        "Tmax": "324.65"
    },
    "RPPHeatCapacityCp": {
        "eqno": "4",
        "A": "29475.76",
        "B": "-3.761741",
        "C": "0.00844854",
        "D": "-2.58231E-06",
        "Tmin": "50",
        "Tmax": "1000"
    },
    "RelativeStaticPermittivity": {
        "eqno": "120",
        "A": "-3.410371",
        "B": "-2300",
        "C": "-13.8",
        "Tmin": "281.9278",
        "Tmax": "451.9278"
    },
    "AntoineVaporPressure": {
        "eqno": "10",
        "A": "21.854",
        "B": "1925.3",
        "C": "-1.5518",
        "Tmin": "196.58",
        "Tmax": "290.95"
    },
    "LiquidViscosityRPS": {
        "eqno": "13",
        "A": "-2.3436",
        "B": "-0.038305",
        "C": "0.000048386",
        "Tmin": "158.97",
        "Tmax": "318.15"
    },
    "COSTALDVolume": "0.11545",
    "DiameterLJ": "3.36E-10",
    "EnergyLJ": "328",
    "FullerVolume": "23.31",
    "MatthiasCopemanC2": "0.35497",
    "Parachor": "0.0125",
    "SpecificGravity": "0.854783",
    "Charge": "0",
    "CostaldAcentricFactor": "0.1254",
    "WilsonVolume": "0.030563",
    "UniquacR": "1.056032",
    "UniquacQ": "1.1",
    "MatthiasCopemanC3": "-1.3766",
    "ChaoSeaderAcentricFactor": "0.121",
    "ChaoSeaderSolubilityParameter": "22003.8",
    "ChaoSeaderLiquidVolume": "0.030563",
    "Umr": {
        "group": "1"
    },
    "CAS": "7647-01-0",
    "Smiles": "Cl"
}