{
    "LibraryIndex": "1907",
    "CompoundID": "Hydrogen iodide",
    "StructureFormula": "HI",
    "Family": "77",
    "CriticalTemperature": "423.85",
    "CriticalPressure": "8310000",
    "CriticalVolume": "0.1219",
    "CriticalCompressibility": "0.287",
    "NormalBoilingPointTemperature": "237.55",
    "NormalMeltingPointTemperature": "222.38",
    "TriplePointTemperature": "222.38",
    "TriplePointPressure": "49326.4",
    "MolecularWeight": "127.9124",
    "LiquidVolumeAtNormalBoilingPoint": "0.0507575",
    "AcentricityFactor": "0.0380703",
    "RadiusOfGyration": "1.418E-11",
    "SolubilityParameter": "17120",
    "DipoleMoment": "1.5E-30",
    "VanDerWaalsVolume": "0.02537",
    "VanDerWaalsArea": "3.982E+08",
    "HeatOfFormation": "2.65E+07",
    "GibbsEnergyOfFormation": "1716000",
    "AbsEntropy": "206481",
    "HeatOfFusionAtMeltingPoint": "2872100",
    "MatthiasCopemanC1": "0.55826",
    "HeatOfCombustion": "-1.162E+08",
    "SolidDensity": {
        "eqno": "2",
        "A": "27.652",
        "B": "1.0295E-08",
        "Tmin": "78",
        "Tmax": "87.5"
    },
    "LiquidDensity": {
        "eqno": "105",
        "A": "0.29008",
        "B": "0.10272",
        "C": "423.85",
        "D": "0.12802",
        "Tmin": "222.38",
        "Tmax": "422"
    },
    "VaporPressure": {
        "eqno": "101",
        "A": "48.208",
        "B": "-3309.5",
        "C": "-4.2202",
        "D": "0.0000058868",
        "E": "2",
        "Tmin": "217.95",
        "Tmax": "423.85"
    },
    "HeatOfVaporization": {
        "eqno": "106",
        "A": "4.5057E+07",
        "B": "2.4036",
        "C": "-3.4166",
        "D": "1.5877",
        "E": "-0.0027034",
        "Tmin": "222.38",
        "Tmax": "416.26"
    },
    "SolidHeatCapacityCp": {
        "eqno": "100",
        "A": "12463",
        "B": "747.87",
        "C": "-6.2562",
        "D": "0.02194",
        "E": "-0.000024523",
        "Tmin": "100.69",
        "Tmax": "218"
    },
    "LiquidHeatCapacityCp": {
        "eqno": "16",
        "A": "47228",
        "B": "657.18",
        "C": "2.2493",
        "D": "0.031778",
        "E": "-0.000056365",
        "Tmin": "222.37",
        "Tmax": "237.81"
    },
    "IdealGasHeatCapacityCp": {
        "eqno": "16",
        "A": "29070.86",
        "B": "-1600.955",
        "C": "9.445762",
        "D": "0.000914155",
        "E": "-4.506661E-07",
        "Tmin": "50",
        "Tmax": "1500"
    },
    "LiquidViscosity": {
        "eqno": "101",
        "A": "-20.449",
        "B": "-959.41",
        "C": "4.2445",
        "D": "-0.000095025",
        "E": "2",
        "Tmin": "222.38",
        "Tmax": "242.89"
    },
    "VaporViscosity": {
        "eqno": "102",
        "A": "1.6146E-07",
        "B": "0.8587",
        "C": "45.387",
        "D": "-1595.3",
        "Tmin": "250",
        "Tmax": "650"
    },
    "LiquidThermalConductivity": {
        "eqno": "16",
        "A": "-0.2841",
        "B": "21.17",
        "C": "-1.299",
        "D": "0.00096857",
        "E": "-0.0000020056",
        "Tmin": "225.19",
        "Tmax": "420.42"
    },
    "VaporThermalConductivity": {
        "eqno": "102",
        "A": "0.000042343",
        "B": "0.89806",
        "C": "44.783",
        "D": "-39.662",
        "Tmin": "230",
        "Tmax": "1000"
    },
    "SurfaceTension": {
        "eqno": "16",
        "A": "-0.05247",
        "B": "5.663",
        "C": "-2.1706",
        "D": "-0.0013606",
        "E": "-0.0000012045",
        "Tmin": "222.38",
        "Tmax": "413.25"
    },
    "RPPHeatCapacityCp": {
        "eqno": "4",
        "A": "29521",
        "B": "-4.9613",
        "C": "0.013867",
        "D": "-0.0000053438",
        "Tmin": "100",
        "Tmax": "1500"
    },
    "RelativeStaticPermittivity": {
        "eqno": "120",
        "A": "-2.158041",
        "B": "-1450",
        "C": "-8.7",
        "Tmin": "276.3722",
        "Tmax": "446.3722"
    },
    "AntoineVaporPressure": {
        "eqno": "10",
        "A": "20.903",
        "B": "1993.1",
        "C": "-25.784",
        "Tmin": "256.02",
        "Tmax": "381.44"
    },
    "LiquidViscosityRPS": {
        "eqno": "13",
        "A": "-16.715",
        "B": "0.095325",
        "C": "-0.0002226",
        "Tmin": "222.38",
        "Tmax": "242.89"
    },
    "COSTALDVolume": "0.13492",
    "DiameterLJ": "4.13E-10",
    "EnergyLJ": "313",
    "FullerVolume": "32.11",
    "MatthiasCopemanC2": "0",
    "Parachor": "0.0185",
    "SpecificGravity": "2.54382",
    "Charge": "0",
    "CostaldAcentricFactor": "0.0359999",
    "WilsonVolume": "0.0457176",
    "UniquacR": "1.6724",
    "UniquacQ": "1.5928",
    "MatthiasCopemanC3": "0",
    "ChaoSeaderAcentricFactor": "0.0380703",
    "ChaoSeaderSolubilityParameter": "19866.7",
    "ChaoSeaderLiquidVolume": "0.0457176",
    "Umr": {
        "group": "1"
    },
    "CAS": "10034-85-2",
    "Smiles": "I"
}