{
    "LibraryIndex": "820",
    "CompoundID": "Indane",
    "StructureFormula": "C6H4(CH2)3",
    "Family": "23",
    "CriticalTemperature": "684.9",
    "CriticalPressure": "3950000",
    "CriticalVolume": "0.393",
    "CriticalCompressibility": "0.273",
    "NormalBoilingPointTemperature": "451",
    "NormalMeltingPointTemperature": "221.74",
    "TriplePointTemperature": "221.74",
    "TriplePointPressure": "0.152927",
    "MolecularWeight": "118.1757",
    "LiquidVolumeAtNormalBoilingPoint": "0.12315",
    "AcentricityFactor": "0.309213",
    "RadiusOfGyration": "3.85E-10",
    "SolubilityParameter": "19420",
    "DipoleMoment": "1.8E-30",
    "VanDerWaalsVolume": "0.07075",
    "VanDerWaalsArea": "7.77E+08",
    "HeatOfFormation": "6.07E+07",
    "GibbsEnergyOfFormation": "1.668E+08",
    "AbsEntropy": "348910",
    "HeatOfFusionAtMeltingPoint": "8598000",
    "MatthiasCopemanC1": "0.87712",
    "HeatOfCombustion": "-4.7626E+09",
    "SolidDensity": {
        "eqno": "2",
        "A": "10.978",
        "B": "-0.0055307",
        "Tmin": "88.7",
        "Tmax": "221.74"
    },
    "LiquidDensity": {
        "eqno": "105",
        "A": "0.63627",
        "B": "0.25179",
        "C": "684.9",
        "D": "0.29165",
        "Tmin": "221.74",
        "Tmax": "684.9"
    },
    "VaporPressure": {
        "eqno": "101",
        "A": "97.02207",
        "B": "-8795.05",
        "C": "-11.00248",
        "D": "6.105132E-06",
        "E": "2",
        "Tmin": "221.74",
        "Tmax": "684.9"
    },
    "HeatOfVaporization": {
        "eqno": "106",
        "A": "6.2067E+07",
        "B": "-0.0045874",
        "C": "2.0817",
        "D": "-3.2476",
        "E": "1.6013",
        "Tmin": "221.74",
        "Tmax": "684.9"
    },
    "SolidHeatCapacityCp": {
        "eqno": "100",
        "A": "-355.12",
        "B": "1287.7",
        "C": "-10.018",
        "D": "0.047026",
        "E": "-0.000077286",
        "Tmin": "50",
        "Tmax": "221.8"
    },
    "LiquidHeatCapacityCp": {
        "eqno": "16",
        "A": "136380",
        "B": "-29.478",
        "C": "8.0608",
        "D": "0.01305",
        "E": "-0.000010993",
        "Tmin": "221.74",
        "Tmax": "451.12"
    },
    "IdealGasHeatCapacityCp": {
        "eqno": "16",
        "A": "60321",
        "B": "-643.06",
        "C": "13.337",
        "D": "-0.00018807",
        "E": "3.6677E-08",
        "Tmin": "200",
        "Tmax": "1500"
    },
    "SecondVirialCoefficient": {
        "eqno": "104",
        "A": "0.087726",
        "B": "-163.08",
        "C": "-117.03",
        "D": "24981",
        "E": "-82865",
        "Tmin": "342.45",
        "Tmax": "1500"
    },
    "LiquidViscosity": {
        "eqno": "101",
        "A": "-151.95",
        "B": "6810.2",
        "C": "21.863",
        "D": "-0.00002342",
        "E": "2",
        "Tmin": "221.74",
        "Tmax": "547.92"
    },
    "VaporViscosity": {
        "eqno": "102",
        "A": "0.0000002842",
        "B": "0.64259",
        "C": "225.95",
        "D": "-643.44",
        "Tmin": "221.74",
        "Tmax": "1000"
    },
    "LiquidThermalConductivity": {
        "eqno": "16",
        "A": "-0.041318",
        "B": "5.7098",
        "C": "-1.5369",
        "D": "-0.00043639",
        "E": "-0.0000010195",
        "Tmin": "221.74",
        "Tmax": "451.12"
    },
    "VaporThermalConductivity": {
        "eqno": "102",
        "A": "0.0089527",
        "B": "0.43447",
        "C": "617.91",
        "D": "764370",
        "Tmin": "221.74",
        "Tmax": "1000"
    },
    "SurfaceTension": {
        "eqno": "16",
        "A": "-0.0094403",
        "B": "81.588",
        "C": "-3.3664",
        "D": "0.0013789",
        "E": "-0.000005115",
        "Tmin": "221.74",
        "Tmax": "684.9"
    },
    "RPPHeatCapacityCp": {
        "eqno": "4",
        "A": "-47835",
        "B": "715.44",
        "C": "-0.41555",
        "D": "0.0000889",
        "Tmin": "200",
        "Tmax": "1500"
    },
    "AntoineVaporPressure": {
        "eqno": "10",
        "A": "21.208",
        "B": "3817.3",
        "C": "-56.866",
        "Tmin": "412",
        "Tmax": "611.77"
    },
    "LiquidViscosityRPS": {
        "eqno": "13",
        "A": "3.0311",
        "B": "-0.045083",
        "C": "0.000044726",
        "Tmin": "221.74",
        "Tmax": "547.92"
    },
    "COSTALDVolume": "0.381158",
    "DiameterLJ": "6.491035E-10",
    "EnergyLJ": "417.5667",
    "RacketParameter": "0.263427",
    "FullerVolume": "147.9",
    "MatthiasCopemanC2": "0.40707",
    "Parachor": "0.0528",
    "SpecificGravity": "0.862893",
    "Charge": "0",
    "CostaldAcentricFactor": "0.305",
    "WilsonVolume": "0.123128",
    "UniquacR": "4.66381",
    "UniquacQ": "3.108",
    "MatthiasCopemanC3": "-0.85719",
    "ChaoSeaderAcentricFactor": "0.305",
    "ChaoSeaderSolubilityParameter": "19405.1",
    "ChaoSeaderLiquidVolume": "0.123128",
    "UnifacVLE": {
        "group": "2"
    },
    "UnifacLLE": {
        "group": "2"
    },
    "Asog": {
        "group": "2"
    },
    "GCmethod": {
        "group": "3"
    },
    "Umr": {
        "group": "2"
    },
    "ModifiedUnifac": {
        "group": "2"
    },
    "CAS": "496-11-7",
    "Smiles": "C1=CC2=C(C=C1)CCC2"
}