{
    "LibraryIndex": "1691",
    "CompoundID": "Iodobenzene",
    "StructureFormula": "C6H5I",
    "Family": "31",
    "CriticalTemperature": "721.15",
    "CriticalPressure": "4519100",
    "CriticalVolume": "0.351",
    "CriticalCompressibility": "0.265",
    "NormalBoilingPointTemperature": "461.6",
    "NormalMeltingPointTemperature": "241.83",
    "TriplePointTemperature": "241.83",
    "TriplePointPressure": "1.17521",
    "MolecularWeight": "204.0084",
    "LiquidVolumeAtNormalBoilingPoint": "0.111976",
    "AcentricityFactor": "0.246574",
    "RadiusOfGyration": "3.359E-10",
    "SolubilityParameter": "20450",
    "DipoleMoment": "5.67E-30",
    "VanDerWaalsVolume": "0.06548",
    "VanDerWaalsArea": "7.82E+08",
    "HeatOfFormation": "1.649E+08",
    "GibbsEnergyOfFormation": "1.902E+08",
    "AbsEntropy": "334100",
    "HeatOfFusionAtMeltingPoint": "9749000",
    "MatthiasCopemanC1": "0.88464",
    "HeatOfCombustion": "-3.05E+09",
    "SolidDensity": {
        "eqno": "2",
        "A": "9.3334",
        "B": "2.2E-16",
        "Tmin": "241.83",
        "Tmax": "251.33"
    },
    "LiquidDensity": {
        "eqno": "105",
        "A": "0.7521",
        "B": "0.26381",
        "C": "721.15",
        "D": "0.2895",
        "Tmin": "241.83",
        "Tmax": "721.15"
    },
    "VaporPressure": {
        "eqno": "101",
        "A": "79.186",
        "B": "-8185.3",
        "C": "-8.2636",
        "D": "0.0000035963",
        "E": "2",
        "Tmin": "241.83",
        "Tmax": "721.15"
    },
    "HeatOfVaporization": {
        "eqno": "106",
        "A": "6.148821E+07",
        "B": "0.433906",
        "C": "-0.0102943",
        "D": "-0.0130647",
        "E": "-0.0329532",
        "Tmin": "241.83",
        "Tmax": "721.15"
    },
    "SolidHeatCapacityCp": {
        "eqno": "100",
        "A": "6576",
        "B": "738.1",
        "C": "-3.3528",
        "D": "0.013129",
        "E": "-0.000016135",
        "Tmin": "90",
        "Tmax": "241.83"
    },
    "LiquidHeatCapacityCp": {
        "eqno": "16",
        "A": "139830",
        "B": "578.69",
        "C": "1.6453",
        "D": "0.031278",
        "E": "-0.000034279",
        "Tmin": "250",
        "Tmax": "350"
    },
    "IdealGasHeatCapacityCp": {
        "eqno": "16",
        "A": "63442",
        "B": "-692.72",
        "C": "13.003",
        "D": "-0.00048297",
        "E": "1.3499E-07",
        "Tmin": "200",
        "Tmax": "1500"
    },
    "SecondVirialCoefficient": {
        "eqno": "104",
        "A": "0.22331",
        "B": "-352.07",
        "C": "-71.715",
        "D": "-10058",
        "E": "-45757",
        "Tmin": "360.57",
        "Tmax": "1980.6"
    },
    "LiquidViscosity": {
        "eqno": "101",
        "A": "-57.177",
        "B": "3157.8",
        "C": "7.1529",
        "D": "-0.0000070913",
        "E": "2",
        "Tmin": "241.83",
        "Tmax": "461.6"
    },
    "VaporViscosity": {
        "eqno": "102",
        "A": "2.1908E-07",
        "B": "0.74366",
        "C": "231.22",
        "D": "-43.688",
        "Tmin": "241.83",
        "Tmax": "1000"
    },
    "LiquidThermalConductivity": {
        "eqno": "16",
        "A": "0.077923",
        "B": "1284.8",
        "C": "-17.082",
        "D": "0.050362",
        "E": "-0.00006779",
        "Tmin": "216.35",
        "Tmax": "461.6"
    },
    "VaporThermalConductivity": {
        "eqno": "102",
        "A": "0.00026878",
        "B": "0.78911",
        "C": "373.97",
        "D": "187720",
        "Tmin": "241.83",
        "Tmax": "1000"
    },
    "SurfaceTension": {
        "eqno": "16",
        "A": "-0.010772",
        "B": "65.841",
        "C": "-3.1409",
        "D": "0.0010009",
        "E": "-0.0000042785",
        "Tmin": "241.83",
        "Tmax": "721.15"
    },
    "RPPHeatCapacityCp": {
        "eqno": "4",
        "A": "-24781",
        "B": "533.2927",
        "C": "-0.414111",
        "D": "0.000125704",
        "Tmin": "200",
        "Tmax": "1200"
    },
    "RelativeStaticPermittivity": {
        "eqno": "120",
        "A": "-3.488623",
        "B": "-2300",
        "C": "-13.8",
        "Tmin": "154",
        "Tmax": "449.15"
    },
    "AntoineVaporPressure": {
        "eqno": "10",
        "A": "21.202",
        "B": "3942.3",
        "C": "-54.218",
        "Tmin": "433.15",
        "Tmax": "645.47"
    },
    "LiquidViscosityRPS": {
        "eqno": "13",
        "A": "2.2239",
        "B": "-0.04181",
        "C": "0.000043079",
        "Tmin": "241.83",
        "Tmax": "461.6"
    },
    "COSTALDVolume": "0.351265",
    "DiameterLJ": "6.47817E-10",
    "EnergyLJ": "395.0244",
    "FullerVolume": "118.45",
    "MatthiasCopemanC2": "-0.26194",
    "Parachor": "0.0498",
    "SpecificGravity": "1.83757",
    "Charge": "0",
    "CostaldAcentricFactor": "0.246574",
    "WilsonVolume": "0.111976",
    "UniquacR": "4.2857",
    "UniquacQ": "3.112",
    "MatthiasCopemanC3": "0.61965",
    "ChaoSeaderAcentricFactor": "0.246574",
    "ChaoSeaderSolubilityParameter": "20367.4",
    "ChaoSeaderLiquidVolume": "0.111976",
    "UnifacVLE": {
        "group": "1"
    },
    "Asog": {
        "group": "1"
    },
    "Umr": {
        "group": "1"
    },
    "ModifiedUnifac": {
        "group": "1"
    },
    "CAS": "591-50-4",
    "Smiles": "c1(I)ccccc1"
}