{
    "LibraryIndex": "1316",
    "CompoundID": "Isobutyl acetate",
    "StructureFormula": "CH3COOCH2CH(CH3)2",
    "Family": "56",
    "CriticalTemperature": "561",
    "CriticalPressure": "3160000",
    "CriticalVolume": "0.413",
    "CriticalCompressibility": "0.266",
    "NormalBoilingPointTemperature": "389.72",
    "NormalMeltingPointTemperature": "174.3",
    "TriplePointTemperature": "174.3",
    "TriplePointPressure": "0.00622415",
    "MolecularWeight": "116.1583",
    "LiquidVolumeAtNormalBoilingPoint": "0.13387",
    "AcentricityFactor": "0.456",
    "RadiusOfGyration": "4.276E-10",
    "SolubilityParameter": "17050",
    "DipoleMoment": "6.24E-30",
    "VanDerWaalsVolume": "0.07322",
    "VanDerWaalsArea": "1.048E+09",
    "HeatOfFormation": "-4.93E+08",
    "GibbsEnergyOfFormation": "-3.222E+08",
    "AbsEntropy": "441000",
    "HeatOfFusionAtMeltingPoint": "1.24E+07",
    "MatthiasCopemanC1": "1.16",
    "HeatOfCombustion": "-3.319E+09",
    "SolidDensity": {
        "eqno": "2",
        "A": "10.68",
        "B": "-0.0067015",
        "C": "0",
        "D": "0",
        "E": "0",
        "Tmin": "69.72",
        "Tmax": "174.3"
    },
    "LiquidDensity": {
        "eqno": "105",
        "A": "0.40843",
        "B": "0.20784",
        "C": "561",
        "D": "0.21394",
        "Tmin": "174.3",
        "Tmax": "560.8"
    },
    "VaporPressure": {
        "eqno": "101",
        "A": "28.45261",
        "B": "-5051.537",
        "C": "-0.615949",
        "D": "-1.95606E-06",
        "E": "2",
        "Tmin": "174.3",
        "Tmax": "561.15"
    },
    "HeatOfVaporization": {
        "eqno": "106",
        "A": "6.408651E+07",
        "B": "1.313221",
        "C": "-1.992233",
        "D": "1.203843",
        "E": "-0.0654865",
        "Tmin": "174.3",
        "Tmax": "560.8"
    },
    "SolidHeatCapacityCp": {
        "eqno": "1",
        "A": "182900",
        "Tmin": "0",
        "Tmax": "561"
    },
    "LiquidHeatCapacityCp": {
        "eqno": "16",
        "A": "161610",
        "B": "660.76",
        "C": "3.3098",
        "D": "0.024476",
        "E": "-0.000019195",
        "Tmin": "211.01",
        "Tmax": "504.72"
    },
    "IdealGasHeatCapacityCp": {
        "eqno": "16",
        "A": "100140",
        "B": "-654.65",
        "C": "13.176",
        "D": "-0.00017464",
        "E": "3.2068E-08",
        "Tmin": "273",
        "Tmax": "1400.15"
    },
    "SecondVirialCoefficient": {
        "eqno": "104",
        "A": "0.25768",
        "B": "-273.28",
        "C": "-54.487",
        "D": "-16133",
        "E": "20909",
        "Tmin": "280.4",
        "Tmax": "1792.5"
    },
    "LiquidViscosity": {
        "eqno": "101",
        "A": "-7.1351",
        "B": "566.94",
        "C": "-0.24427",
        "D": "-0.0000078548",
        "E": "2",
        "Tmin": "275",
        "Tmax": "389.8"
    },
    "VaporViscosity": {
        "eqno": "102",
        "A": "1.0879E-07",
        "B": "0.78101",
        "C": "111.13",
        "D": "1059.5",
        "Tmin": "174.3",
        "Tmax": "1000"
    },
    "LiquidThermalConductivity": {
        "eqno": "16",
        "A": "0.070874",
        "B": "405.28",
        "C": "-7.1892",
        "D": "0.020474",
        "E": "-0.000033831",
        "Tmin": "168.3",
        "Tmax": "448.3"
    },
    "VaporThermalConductivity": {
        "eqno": "102",
        "A": "-0.0010112",
        "B": "0.95292",
        "C": "-6813.9",
        "D": "270410",
        "Tmin": "174.3",
        "Tmax": "1000"
    },
    "SurfaceTension": {
        "eqno": "16",
        "A": "-0.01526",
        "B": "26.196",
        "C": "-3.0206",
        "D": "0.000089811",
        "E": "-0.0000040241",
        "Tmin": "174.3",
        "Tmax": "560.8"
    },
    "RPPHeatCapacityCp": {
        "eqno": "4",
        "A": "-4262.4",
        "B": "646.34",
        "C": "-0.39482",
        "D": "0.000090736",
        "Tmin": "273",
        "Tmax": "1400.15"
    },
    "RelativeStaticPermittivity": {
        "eqno": "120",
        "A": "-4.532079",
        "B": "-2800",
        "C": "-16.8",
        "Tmin": "274.15",
        "Tmax": "444.15"
    },
    "AntoineVaporPressure": {
        "eqno": "10",
        "A": "21.759",
        "B": "3497.1",
        "C": "-48.009",
        "Tmin": "337.04",
        "Tmax": "503.15"
    },
    "LiquidViscosityRPS": {
        "eqno": "12",
        "A": "-3.9833",
        "B": "-0.011196",
        "Tmin": "275",
        "Tmax": "389.8"
    },
    "COSTALDVolume": "0.395333",
    "DiameterLJ": "6.808274E-10",
    "EnergyLJ": "311.4942",
    "RacketParameter": "0.266",
    "FullerVolume": "135.34",
    "MatthiasCopemanC2": "0",
    "Parachor": "0.0520369",
    "SpecificGravity": "0.877796",
    "Charge": "0",
    "CostaldAcentricFactor": "0.456",
    "WilsonVolume": "0.13387",
    "UniquacR": "4.8266",
    "UniquacQ": "4.192",
    "MatthiasCopemanC3": "0",
    "ChaoSeaderAcentricFactor": "0.456",
    "ChaoSeaderSolubilityParameter": "17050",
    "ChaoSeaderLiquidVolume": "0.13387",
    "UnifacVLE": {
        "group": "1"
    },
    "UnifacLLE": {
        "group": "1"
    },
    "Asog": {
        "group": "1"
    },
    "Umr": {
        "group": "1"
    },
    "ModifiedUnifac": {
        "group": "1"
    },
    "CAS": "110-19-0",
    "Smiles": "CC(=O)OCC(C)C"
}