{
    "LibraryIndex": "309",
    "CompoundID": "Isoprene",
    "StructureFormula": "CH2C(CH3)CHCH2",
    "Family": "14",
    "CriticalTemperature": "484",
    "CriticalPressure": "3850030",
    "CriticalVolume": "0.276",
    "CriticalCompressibility": "0.264",
    "NormalBoilingPointTemperature": "307.205",
    "NormalMeltingPointTemperature": "127.27",
    "TriplePointTemperature": "127.27",
    "TriplePointPressure": "0.00247682",
    "MolecularWeight": "68.11702",
    "LiquidVolumeAtNormalBoilingPoint": "0.100775",
    "AcentricityFactor": "0.158323",
    "RadiusOfGyration": "3.213E-10",
    "SolubilityParameter": "15330",
    "DipoleMoment": "8.3391E-31",
    "VanDerWaalsVolume": "0.05103",
    "VanDerWaalsArea": "7.53E+08",
    "HeatOfFormation": "7.57304E+07",
    "GibbsEnergyOfFormation": "1.45896E+08",
    "AbsEntropy": "315641",
    "HeatOfFusionAtMeltingPoint": "4924570",
    "MatthiasCopemanC1": "0.58571",
    "HeatOfCombustion": "-2.98424E+09",
    "SolidDensity": {
        "eqno": "2",
        "A": "15.48",
        "B": "-0.013452",
        "Tmin": "50.91",
        "Tmax": "127.27"
    },
    "LiquidDensity": {
        "eqno": "105",
        "A": "0.95762",
        "B": "0.265",
        "C": "484",
        "D": "0.28587",
        "Tmin": "127.27",
        "Tmax": "465.22"
    },
    "VaporPressure": {
        "eqno": "101",
        "A": "59.64382",
        "B": "-4808.579",
        "C": "-5.723014",
        "D": "3.325462E-06",
        "E": "2",
        "Tmin": "127.27",
        "Tmax": "484"
    },
    "HeatOfVaporization": {
        "eqno": "106",
        "A": "4.7482E+07",
        "B": "1.7472",
        "C": "-3.7153",
        "D": "4.0508",
        "E": "-1.6134",
        "Tmin": "127.27",
        "Tmax": "465.22"
    },
    "SolidHeatCapacityCp": {
        "eqno": "100",
        "A": "-16398",
        "B": "1662.9",
        "C": "-14.306",
        "D": "0.058927",
        "E": "-0.000016497",
        "Tmin": "20.39",
        "Tmax": "115.35"
    },
    "LiquidHeatCapacityCp": {
        "eqno": "16",
        "A": "111430",
        "B": "579.88",
        "C": "0.11179",
        "D": "0.042713",
        "E": "-0.000046991",
        "Tmin": "130.32",
        "Tmax": "307.2"
    },
    "IdealGasHeatCapacityCp": {
        "eqno": "16",
        "A": "46067",
        "B": "-400.72",
        "C": "12.189",
        "D": "0.00043981",
        "E": "-1.4681E-07",
        "Tmin": "200",
        "Tmax": "1500"
    },
    "SecondVirialCoefficient": {
        "eqno": "104",
        "A": "0.16606",
        "B": "-184.38",
        "C": "-17.394",
        "D": "5931.3",
        "E": "-15000",
        "Tmin": "242",
        "Tmax": "2000"
    },
    "LiquidViscosity": {
        "eqno": "101",
        "A": "-8.3004",
        "B": "457.06",
        "C": "-0.22583",
        "D": "-0.0000048674",
        "E": "2",
        "Tmin": "273",
        "Tmax": "343"
    },
    "VaporViscosity": {
        "eqno": "102",
        "A": "5.2484E-07",
        "B": "0.58768",
        "C": "291.05",
        "D": "-6176.5",
        "Tmin": "307.2",
        "Tmax": "1000"
    },
    "LiquidThermalConductivity": {
        "eqno": "16",
        "A": "-0.0093138",
        "B": "-47.475",
        "C": "-0.82654",
        "D": "-0.0037828",
        "E": "8.2245E-07",
        "Tmin": "133.15",
        "Tmax": "307.2"
    },
    "VaporThermalConductivity": {
        "eqno": "102",
        "A": "0.0010775",
        "B": "0.73105",
        "C": "657.17",
        "D": "112780",
        "Tmin": "127.27",
        "Tmax": "1000"
    },
    "SurfaceTension": {
        "eqno": "16",
        "A": "-0.011474",
        "B": "19.002",
        "C": "-3.0114",
        "D": "-0.00040883",
        "E": "-0.000005756",
        "Tmin": "127.27",
        "Tmax": "465.22"
    },
    "RPPHeatCapacityCp": {
        "eqno": "4",
        "A": "5017.2",
        "B": "394.61",
        "C": "-0.22753",
        "D": "0.000050803",
        "Tmin": "200",
        "Tmax": "1500"
    },
    "AntoineVaporPressure": {
        "eqno": "10",
        "A": "20.515",
        "B": "2346.3",
        "C": "-46.175",
        "Tmin": "293.36",
        "Tmax": "427.67"
    },
    "LiquidViscosityRPS": {
        "eqno": "13",
        "A": "-4.485",
        "B": "-0.018048",
        "C": "0.000015516",
        "Tmin": "273",
        "Tmax": "307.2"
    },
    "COSTALDVolume": "0.2691",
    "DiameterLJ": "6.006525E-10",
    "EnergyLJ": "261.5367",
    "FullerVolume": "97.98",
    "MatthiasCopemanC2": "0.99129",
    "Parachor": "0.0361",
    "SpecificGravity": "0.684846",
    "Charge": "0",
    "CostaldAcentricFactor": "0.17",
    "WilsonVolume": "0.100775",
    "UniquacR": "3.36",
    "UniquacQ": "3.01",
    "ApiSrkS2": "0.023298",
    "MatthiasCopemanC3": "-1.31457",
    "ChaoSeaderAcentricFactor": "0.1642",
    "ChaoSeaderSolubilityParameter": "15333.3",
    "ChaoSeaderLiquidVolume": "0.100775",
    "UnifacVLE": {
        "group": "1"
    },
    "UnifacLLE": {
        "group": "1"
    },
    "Asog": {
        "group": "1"
    },
    "GCmethod": {
        "group": "1"
    },
    "Umr": {
        "group": "1"
    },
    "ModifiedUnifac": {
        "group": "1"
    },
    "CAS": "78-79-5",
    "Smiles": "C=C(C)C=C"
}