{
    "LibraryIndex": "1810",
    "CompoundID": "Isopropyl mercaptan",
    "StructureFormula": "(CH3)2CHSH",
    "Family": "41",
    "CriticalTemperature": "517.3",
    "CriticalPressure": "4750000",
    "CriticalVolume": "0.254",
    "CriticalCompressibility": "0.281",
    "NormalBoilingPointTemperature": "325.75",
    "NormalMeltingPointTemperature": "142.61",
    "TriplePointTemperature": "142.64",
    "TriplePointPressure": "0.00973089",
    "MolecularWeight": "76.16061",
    "LiquidVolumeAtNormalBoilingPoint": "0.0941865",
    "AcentricityFactor": "0.21381",
    "RadiusOfGyration": "2.993E-10",
    "SolubilityParameter": "16970",
    "DipoleMoment": "5.47E-30",
    "VanDerWaalsVolume": "0.04893",
    "VanDerWaalsArea": "7.1E+08",
    "HeatOfFormation": "-7.59E+07",
    "GibbsEnergyOfFormation": "-2180000",
    "AbsEntropy": "324300",
    "HeatOfFusionAtMeltingPoint": "5736000",
    "HeatOfCombustion": "-2.3684E+09",
    "SolidDensity": {
        "eqno": "2",
        "A": "0",
        "B": "0",
        "C": "0",
        "D": "0",
        "E": "0",
        "Tmin": "0",
        "Tmax": "1"
    },
    "LiquidDensity": {
        "eqno": "105",
        "A": "1.093001",
        "B": "0.27762",
        "C": "517",
        "D": "0.29781",
        "E": "0",
        "Tmin": "142.61",
        "Tmax": "497.2953"
    },
    "VaporPressure": {
        "eqno": "101",
        "A": "52.49398",
        "B": "-5018.813",
        "C": "-4.414151",
        "D": "1.969036E-13",
        "E": "2",
        "Tmin": "142.61",
        "Tmax": "517.0001"
    },
    "HeatOfVaporization": {
        "eqno": "106",
        "A": "4.07186E+07",
        "B": "0.189905",
        "C": "0.420769",
        "D": "-0.0231137",
        "E": "-0.258009",
        "Tmin": "142.61",
        "Tmax": "517.0001"
    },
    "SolidHeatCapacityCp": {
        "eqno": "4",
        "A": "-18220",
        "B": "1882.6",
        "C": "-19.293",
        "D": "0.0884",
        "E": "0",
        "Tmin": "14.62",
        "Tmax": "110.2699"
    },
    "LiquidHeatCapacityCp": {
        "eqno": "16",
        "A": "-4182.09",
        "B": "11.57821",
        "C": "11.69322",
        "D": "0.0000133303",
        "E": "0.0000020152",
        "Tmin": "142.61",
        "Tmax": "350"
    },
    "IdealGasHeatCapacityCp": {
        "eqno": "16",
        "A": "68588.92",
        "B": "-673.2911",
        "C": "12.50044",
        "D": "1.486465E-06",
        "E": "-1.964897E-08",
        "Tmin": "200",
        "Tmax": "1500"
    },
    "SecondVirialCoefficient": {
        "eqno": "104",
        "A": "0.153422",
        "B": "-199.5338",
        "C": "-18.99653",
        "D": "1144.562",
        "E": "-4039.504",
        "Tmin": "257",
        "Tmax": "1542"
    },
    "LiquidViscosity": {
        "eqno": "16",
        "A": "0.0000158085",
        "B": "630.9957",
        "C": "-8.670452",
        "D": "-0.006493",
        "E": "5.676279E-06",
        "Tmin": "142.61",
        "Tmax": "417"
    },
    "VaporViscosity": {
        "eqno": "16",
        "A": "2.562672E-06",
        "B": "-300.3637",
        "C": "-11.49051",
        "D": "0.00155043",
        "E": "-4.080467E-07",
        "Tmin": "142.61",
        "Tmax": "1000"
    },
    "LiquidThermalConductivity": {
        "eqno": "16",
        "A": "0.019346",
        "B": "8.361977",
        "C": "-1.76982",
        "D": "-0.000539416",
        "E": "-3.287583E-06",
        "Tmin": "142.61",
        "Tmax": "325.71"
    },
    "VaporThermalConductivity": {
        "eqno": "102",
        "A": "0.00018367",
        "B": "0.9627",
        "C": "646.01",
        "D": "0",
        "E": "0",
        "Tmin": "142.64",
        "Tmax": "1000"
    },
    "SurfaceTension": {
        "eqno": "16",
        "A": "-0.0111776",
        "B": "26.63325",
        "C": "-3.053494",
        "D": "0.000331969",
        "E": "-0.0000062853",
        "Tmin": "142.61",
        "Tmax": "517.0001"
    },
    "RPPHeatCapacityCp": {
        "eqno": "4",
        "A": "46207.41",
        "B": "65.01495",
        "C": "0.499267",
        "D": "-0.000522701",
        "E": "0",
        "Tmin": "273.15",
        "Tmax": "487.2"
    },
    "AntoineVaporPressure": {
        "eqno": "10",
        "A": "21.08291",
        "B": "2786.592",
        "C": "-34.12406",
        "D": "0",
        "E": "0",
        "Tmin": "168.7",
        "Tmax": "457.97"
    },
    "LiquidViscosityRPS": {
        "eqno": "10",
        "A": "-10.66501",
        "B": "-828.3052",
        "C": "4.074317",
        "D": "0",
        "E": "0",
        "Tmin": "142.61",
        "Tmax": "323.15"
    },
    "Parachor": "0.0360599",
    "SpecificGravity": "0.81887",
    "UniquacR": "3.225445",
    "UniquacQ": "2.84",
    "GCmethod": {
        "group": "1"
    },
    "CAS": "75-33-2",
    "Smiles": "CC(C)S"
}