{
    "LibraryIndex": "1409",
    "CompoundID": "Isopropyl butyl ether",
    "StructureFormula": "C4H9OCH(CH3)2",
    "Family": "61",
    "CriticalTemperature": "549",
    "CriticalPressure": "2740000",
    "CriticalVolume": "0.435",
    "CriticalCompressibility": "0.261",
    "NormalBoilingPointTemperature": "378.15",
    "NormalMeltingPointTemperature": "180",
    "TriplePointTemperature": "180",
    "TriplePointPressure": "0.0337504",
    "MolecularWeight": "116.2013",
    "LiquidVolumeAtNormalBoilingPoint": "0.155791",
    "AcentricityFactor": "0.403229",
    "RadiusOfGyration": "4.475E-10",
    "SolubilityParameter": "15260",
    "DipoleMoment": "4.24E-30",
    "VanDerWaalsVolume": "0.08218",
    "VanDerWaalsArea": "1.158E+09",
    "HeatOfFormation": "-3.269E+08",
    "GibbsEnergyOfFormation": "-1.071E+08",
    "AbsEntropy": "450200",
    "HeatOfFusionAtMeltingPoint": "1.22E+07",
    "HeatOfCombustion": "-4.324E+09",
    "SolidDensity": {
        "eqno": "100",
        "A": "9.3504",
        "B": "-0.0064933",
        "C": "0",
        "D": "0",
        "E": "0",
        "Tmin": "72",
        "Tmax": "180"
    },
    "LiquidDensity": {
        "eqno": "105",
        "A": "0.62258",
        "B": "0.27082",
        "C": "549",
        "D": "0.30735",
        "Tmin": "180",
        "Tmax": "549"
    },
    "VaporPressure": {
        "eqno": "101",
        "A": "85.99635",
        "B": "-7315.405",
        "C": "-9.426402",
        "D": "5.236755E-06",
        "E": "2",
        "Tmin": "180",
        "Tmax": "549"
    },
    "HeatOfVaporization": {
        "eqno": "106",
        "A": "5.2177E+07",
        "B": "0.38027",
        "C": "0",
        "D": "0",
        "E": "0",
        "Tmin": "180",
        "Tmax": "549"
    },
    "SolidHeatCapacityCp": {
        "eqno": "1",
        "A": "210610",
        "Tmin": "0",
        "Tmax": "549"
    },
    "LiquidHeatCapacityCp": {
        "eqno": "16",
        "A": "200760",
        "B": "-0.77126",
        "C": "8.116",
        "D": "0.0093067",
        "E": "-0.00000176",
        "Tmin": "180",
        "Tmax": "411.75"
    },
    "IdealGasHeatCapacityCp": {
        "eqno": "16",
        "A": "76973",
        "B": "-443.41",
        "C": "12.925",
        "D": "0.00032949",
        "E": "-1.1644E-07",
        "Tmin": "180",
        "Tmax": "1200"
    },
    "SecondVirialCoefficient": {
        "eqno": "104",
        "A": "0.28425",
        "B": "-304.18",
        "C": "-51.293",
        "D": "-5929.1",
        "E": "1171.2",
        "Tmin": "274.5",
        "Tmax": "1500"
    },
    "LiquidViscosity": {
        "eqno": "101",
        "A": "-11.496",
        "B": "1171.6",
        "C": "0.0066892",
        "D": "-1.6659E-08",
        "E": "2",
        "Tmin": "180",
        "Tmax": "473"
    },
    "VaporViscosity": {
        "eqno": "102",
        "A": "0.000000176",
        "B": "0.70157",
        "C": "181.76",
        "D": "-5946.4",
        "Tmin": "180",
        "Tmax": "1000"
    },
    "LiquidThermalConductivity": {
        "eqno": "16",
        "A": "-0.10095",
        "B": "17.355",
        "C": "-1.4146",
        "D": "-0.000082157",
        "E": "-0.0000014735",
        "Tmin": "164.7",
        "Tmax": "439.2"
    },
    "VaporThermalConductivity": {
        "eqno": "102",
        "A": "0.00016013",
        "B": "0.96562",
        "C": "574.46",
        "D": "18419",
        "Tmin": "180",
        "Tmax": "1000"
    },
    "SurfaceTension": {
        "eqno": "16",
        "A": "-0.0073125",
        "B": "68.441",
        "C": "-3.6554",
        "D": "0.0016795",
        "E": "-0.0000077692",
        "Tmin": "180",
        "Tmax": "549"
    },
    "RPPHeatCapacityCp": {
        "eqno": "4",
        "A": "-16950",
        "B": "793.92",
        "C": "-0.50277",
        "D": "0.00012845",
        "Tmin": "180",
        "Tmax": "1200"
    },
    "AntoineVaporPressure": {
        "eqno": "10",
        "A": "20.893",
        "B": "2954",
        "C": "-66.624",
        "Tmin": "335.37",
        "Tmax": "490.74"
    },
    "LiquidViscosityRPS": {
        "eqno": "12",
        "A": "-2.4944",
        "B": "-0.016265",
        "Tmin": "180",
        "Tmax": "382.3"
    },
    "COSTALDVolume": "0.447711",
    "DiameterLJ": "7.086625E-10",
    "EnergyLJ": "284.7026",
    "RacketParameter": "0.261",
    "FullerVolume": "154.37",
    "Parachor": "0.0580587",
    "SpecificGravity": "0.755446",
    "Charge": "0",
    "CostaldAcentricFactor": "0.403229",
    "WilsonVolume": "0.155791",
    "UniquacR": "5.4173",
    "UniquacQ": "4.632",
    "ChaoSeaderAcentricFactor": "0.403229",
    "ChaoSeaderSolubilityParameter": "15260",
    "ChaoSeaderLiquidVolume": "0.155791",
    "UnifacVLE": {
        "group": "1"
    },
    "UnifacLLE": {
        "group": "1"
    },
    "Asog": {
        "group": "1"
    },
    "Umr": {
        "group": "1"
    },
    "ModifiedUnifac": {
        "group": "1"
    },
    "CAS": "1860-27-1",
    "Smiles": "CCCCOC(C)C"
}