{
    "LibraryIndex": "1104",
    "CompoundID": "Isopropanol",
    "StructureFormula": "CH3CH(OH)CH3",
    "Family": "46",
    "CriticalTemperature": "508.3",
    "CriticalPressure": "4762000",
    "CriticalVolume": "0.22",
    "CriticalCompressibility": "0.248",
    "NormalBoilingPointTemperature": "355.39",
    "NormalMeltingPointTemperature": "185.28",
    "TriplePointTemperature": "185.28",
    "TriplePointPressure": "0.0363946",
    "MolecularWeight": "60.09502",
    "LiquidVolumeAtNormalBoilingPoint": "0.07692",
    "AcentricityFactor": "0.665",
    "RadiusOfGyration": "2.807E-10",
    "SolubilityParameter": "23420",
    "DipoleMoment": "5.54E-30",
    "VanDerWaalsVolume": "0.04216",
    "VanDerWaalsArea": "6.27E+08",
    "HeatOfFormation": "-2.727E+08",
    "GibbsEnergyOfFormation": "-1.7347E+08",
    "AbsEntropy": "309200",
    "HeatOfFusionAtMeltingPoint": "5410000",
    "MatthiasCopemanC1": "1.1433",
    "HeatOfCombustion": "-1.83E+09",
    "SolidDensity": {
        "eqno": "2",
        "A": "18.573",
        "B": "-0.011338",
        "Tmin": "74.11",
        "Tmax": "185.28"
    },
    "LiquidDensity": {
        "eqno": "105",
        "A": "1.1898",
        "B": "0.26648",
        "C": "508.3",
        "D": "0.23986",
        "Tmin": "185.28",
        "Tmax": "508.3"
    },
    "VaporPressure": {
        "eqno": "101",
        "A": "77.70856",
        "B": "-7630.115",
        "C": "-7.63517",
        "D": "9.965114E-07",
        "E": "2",
        "Tmin": "185.28",
        "Tmax": "508.3"
    },
    "HeatOfVaporization": {
        "eqno": "106",
        "A": "1.100995E+08",
        "B": "4.1961",
        "C": "-10.70959",
        "D": "11.69444",
        "E": "-4.625499",
        "Tmin": "185.28",
        "Tmax": "508.3"
    },
    "SolidHeatCapacityCp": {
        "eqno": "100",
        "A": "-5999",
        "B": "747.79",
        "C": "1.6541",
        "D": "-0.049958",
        "E": "0.0001963",
        "Tmin": "25",
        "Tmax": "185.26"
    },
    "LiquidHeatCapacityCp": {
        "eqno": "16",
        "A": "-188260",
        "B": "277.99",
        "C": "9.4459",
        "D": "0.010702",
        "E": "-0.0000091964",
        "Tmin": "185.26",
        "Tmax": "480"
    },
    "IdealGasHeatCapacityCp": {
        "eqno": "16",
        "A": "52738",
        "B": "-555.28",
        "C": "12.347",
        "D": "0.000094247",
        "E": "-4.5945E-08",
        "Tmin": "150",
        "Tmax": "1500"
    },
    "SecondVirialCoefficient": {
        "eqno": "104",
        "A": "0.085006",
        "B": "-95.666",
        "C": "-21.924",
        "D": "-3475.4",
        "E": "-29704",
        "Tmin": "279",
        "Tmax": "2000"
    },
    "LiquidViscosity": {
        "eqno": "101",
        "A": "-7.4407",
        "B": "2259.7",
        "C": "-1.1149",
        "D": "0.0000002963",
        "E": "2",
        "Tmin": "187.35",
        "Tmax": "408"
    },
    "VaporViscosity": {
        "eqno": "102",
        "A": "1.9931E-07",
        "B": "0.72329",
        "C": "178.01",
        "D": "-15.318",
        "Tmin": "185.28",
        "Tmax": "1000"
    },
    "LiquidThermalConductivity": {
        "eqno": "16",
        "A": "-0.15761",
        "B": "49.41",
        "C": "-1.6579",
        "D": "0.0019566",
        "E": "-0.0000034939",
        "Tmin": "183.65",
        "Tmax": "410.15"
    },
    "VaporThermalConductivity": {
        "eqno": "102",
        "A": "0.0028843",
        "B": "0.91609",
        "C": "11082",
        "D": "-222500",
        "Tmin": "185.28",
        "Tmax": "995.41"
    },
    "SurfaceTension": {
        "eqno": "16",
        "A": "-0.0068771",
        "B": "-355.64",
        "C": "0.079386",
        "D": "-0.0097522",
        "E": "0.0000049723",
        "Tmin": "273.15",
        "Tmax": "355.41"
    },
    "RPPHeatCapacityCp": {
        "eqno": "100",
        "A": "27720",
        "B": "156.75",
        "C": "0.30298",
        "D": "-0.00050843",
        "E": "2.1144E-07",
        "Tmin": "50",
        "Tmax": "1000"
    },
    "RelativeStaticPermittivity": {
        "eqno": "120",
        "A": "-22.81",
        "B": "-10000",
        "C": "-60.54",
        "Tmin": "275",
        "Tmax": "445"
    },
    "AntoineVaporPressure": {
        "eqno": "10",
        "A": "22.151",
        "B": "2836.6",
        "C": "-88.244",
        "Tmin": "305.37",
        "Tmax": "457.3"
    },
    "LiquidViscosityRPS": {
        "eqno": "13",
        "A": "14.129",
        "B": "-0.10641",
        "C": "0.00012806",
        "Tmin": "187.35",
        "Tmax": "355.41"
    },
    "COSTALDVolume": "0.23883",
    "DiameterLJ": "4.64E-10",
    "EnergyLJ": "518",
    "RacketParameter": "0.2493",
    "FullerVolume": "72.28999",
    "MatthiasCopemanC2": "3.2725",
    "Parachor": "0.0293033",
    "SpecificGravity": "0.786",
    "Charge": "0",
    "CostaldAcentricFactor": "0.66368",
    "WilsonVolume": "0.0768988",
    "UniquacR": "2.78",
    "UniquacQ": "2.51",
    "UniquacQP": "0.89",
    "ApiSrkS1": "0.140334",
    "ApiSrkS2": "1.269059",
    "MatthiasCopemanC3": "-7.9945",
    "ChaoSeaderAcentricFactor": "0.7238",
    "ChaoSeaderSolubilityParameter": "23408.3",
    "ChaoSeaderLiquidVolume": "0.0768988",
    "UnifacVLE": {
        "group": "1"
    },
    "UnifacLLE": {
        "group": "1"
    },
    "Asog": {
        "group": "1"
    },
    "GCmethod": {
        "group": "1"
    },
    "Umr": {
        "group": "1"
    },
    "ModifiedUnifac": {
        "group": "1"
    },
    "CAS": "67-63-0",
    "Smiles": "CC(O)C"
}