{
    "LibraryIndex": "8",
    "CompoundID": "Isopentane",
    "StructureFormula": "CH3CH(CH3)CH2CH3",
    "Family": "2",
    "CriticalTemperature": "460.39",
    "CriticalPressure": "3381000",
    "CriticalVolume": "0.3083",
    "CriticalCompressibility": "0.272",
    "NormalBoilingPointTemperature": "300.99",
    "NormalMeltingPointTemperature": "113.25",
    "TriplePointTemperature": "113.25",
    "TriplePointPressure": "0.00012144",
    "MolecularWeight": "72.14878",
    "LiquidVolumeAtNormalBoilingPoint": "0.11646",
    "AcentricityFactor": "0.229",
    "RadiusOfGyration": "3.324E-10",
    "SolubilityParameter": "13870",
    "DipoleMoment": "4.34E-31",
    "VanDerWaalsVolume": "0.05802",
    "VanDerWaalsArea": "8.28E+08",
    "HeatOfFormation": "-1.537E+08",
    "GibbsEnergyOfFormation": "-1.405E+07",
    "AbsEntropy": "343740",
    "HeatOfFusionAtMeltingPoint": "5150000",
    "MatthiasCopemanC1": "0.88771",
    "HeatOfCombustion": "-3.23954E+09",
    "SolidDensity": {
        "eqno": "2",
        "A": "13.656",
        "B": "-0.013374",
        "Tmin": "45.3",
        "Tmax": "113.25"
    },
    "LiquidDensity": {
        "eqno": "105",
        "A": "0.73194",
        "B": "0.24835",
        "C": "460.99",
        "D": "0.25733",
        "Tmin": "113.15",
        "Tmax": "460.98"
    },
    "VaporPressure": {
        "eqno": "101",
        "A": "71.04288",
        "B": "-4967.235",
        "C": "-7.674379",
        "D": "8.659929E-06",
        "E": "2",
        "Tmin": "113.25",
        "Tmax": "460.4"
    },
    "HeatOfVaporization": {
        "eqno": "106",
        "A": "4.14248E+07",
        "B": "0.799342",
        "C": "-0.581969",
        "D": "0.0834724",
        "E": "0.117826",
        "Tmin": "113.25",
        "Tmax": "460.4"
    },
    "SolidHeatCapacityCp": {
        "eqno": "100",
        "A": "-9226.8",
        "B": "944.22",
        "C": "12.156",
        "D": "-0.25376",
        "E": "0.0012526",
        "Tmin": "13",
        "Tmax": "113.36"
    },
    "LiquidHeatCapacityCp": {
        "eqno": "16",
        "A": "112460",
        "B": "-54.259",
        "C": "8.8747",
        "D": "0.0083911",
        "E": "-0.0000034773",
        "Tmin": "113.25",
        "Tmax": "310"
    },
    "IdealGasHeatCapacityCp": {
        "eqno": "16",
        "A": "59843",
        "B": "-493.27",
        "C": "12.516",
        "D": "0.00046099",
        "E": "-1.5305E-07",
        "Tmin": "200",
        "Tmax": "1500"
    },
    "SecondVirialCoefficient": {
        "eqno": "104",
        "A": "0.16392",
        "B": "-173.55",
        "C": "-19.026",
        "D": "1021.5",
        "E": "-2755.1",
        "Tmin": "230.2",
        "Tmax": "1841.56"
    },
    "LiquidViscosity": {
        "eqno": "101",
        "A": "-12.596",
        "B": "889.14",
        "C": "0.20472",
        "D": "4.0592E-09",
        "E": "2",
        "Tmin": "150",
        "Tmax": "360"
    },
    "VaporViscosity": {
        "eqno": "102",
        "A": "6.6346E-08",
        "B": "0.82828",
        "C": "-68.082",
        "D": "25303",
        "Tmin": "150",
        "Tmax": "1000"
    },
    "LiquidThermalConductivity": {
        "eqno": "16",
        "A": "0.061061",
        "B": "89.857",
        "C": "-3.522",
        "D": "0.0075154",
        "E": "-0.000023032",
        "Tmin": "113.25",
        "Tmax": "368.13"
    },
    "VaporThermalConductivity": {
        "eqno": "102",
        "A": "0.00090019",
        "B": "0.7738",
        "C": "456.82",
        "D": "231390",
        "Tmin": "113.25",
        "Tmax": "1000"
    },
    "SurfaceTension": {
        "eqno": "16",
        "A": "-0.014311",
        "B": "8.316",
        "C": "-2.8974",
        "D": "-0.00090151",
        "E": "-0.0000046238",
        "Tmin": "113.25",
        "Tmax": "442.13"
    },
    "RPPHeatCapacityCp": {
        "eqno": "100",
        "A": "16288",
        "B": "317.54",
        "C": "0.20237",
        "D": "-0.00043027",
        "E": "1.8001E-07",
        "Tmin": "200",
        "Tmax": "1000"
    },
    "RelativeStaticPermittivity": {
        "eqno": "120",
        "A": "-1.366",
        "B": "-925",
        "C": "-5.55",
        "Tmin": "275",
        "Tmax": "445"
    },
    "AntoineVaporPressure": {
        "eqno": "10",
        "A": "20.89",
        "B": "2541.9",
        "C": "-29.563",
        "Tmin": "276.92",
        "Tmax": "410"
    },
    "LiquidViscosityRPS": {
        "eqno": "13",
        "A": "0.49033",
        "B": "-0.05312",
        "C": "0.00007775",
        "Tmin": "150",
        "Tmax": "310"
    },
    "COSTALDVolume": "0.30959",
    "DiameterLJ": "6.012938E-10",
    "EnergyLJ": "277.0048",
    "RacketParameter": "0.2716",
    "FullerVolume": "107.22",
    "MatthiasCopemanC2": "-0.50468",
    "Parachor": "0.0408",
    "SpecificGravity": "0.623442",
    "Charge": "0",
    "CostaldAcentricFactor": "0.23995",
    "WilsonVolume": "0.117098",
    "UniquacR": "3.82",
    "UniquacQ": "3.31",
    "ApiSrkS2": "-0.005345",
    "MatthiasCopemanC3": "0.94255",
    "ChaoSeaderAcentricFactor": "0.2104",
    "ChaoSeaderSolubilityParameter": "14359.41",
    "ChaoSeaderLiquidVolume": "0.1174",
    "UnifacVLE": {
        "group": "1"
    },
    "UnifacLLE": {
        "group": "1"
    },
    "Asog": {
        "group": "1"
    },
    "GCmethod": {
        "group": "1"
    },
    "Umr": {
        "group": "1"
    },
    "ModifiedUnifac": {
        "group": "1"
    },
    "CAS": "78-78-4",
    "Smiles": "CC(C)CC"
}