{
    "LibraryIndex": "1100",
    "CompoundID": "Ketene",
    "StructureFormula": "CH2CO",
    "Family": "26",
    "CriticalTemperature": "370",
    "CriticalPressure": "5810000",
    "CriticalVolume": "0.144",
    "CriticalCompressibility": "0.272",
    "NormalBoilingPointTemperature": "217.15",
    "NormalMeltingPointTemperature": "122.15",
    "TriplePointTemperature": "122",
    "TriplePointPressure": "7.19493",
    "MolecularWeight": "42.03668",
    "LiquidVolumeAtNormalBoilingPoint": "0.06374",
    "AcentricityFactor": "0.125656",
    "RadiusOfGyration": "1.605E-10",
    "SolubilityParameter": "13820",
    "DipoleMoment": "4.74E-30",
    "VanDerWaalsVolume": "0.02571",
    "VanDerWaalsArea": "4.02733E+08",
    "HeatOfFormation": "-6.11E+07",
    "GibbsEnergyOfFormation": "-6.02914E+07",
    "AbsEntropy": "241800",
    "HeatOfFusionAtMeltingPoint": "0",
    "HeatOfCombustion": "-9.67759E+08",
    "SolidDensity": {
        "eqno": "2",
        "A": "28.127",
        "B": "-0.025457",
        "C": "0",
        "D": "0",
        "E": "0",
        "Tmin": "48.8",
        "Tmax": "122"
    },
    "LiquidDensity": {
        "eqno": "105",
        "A": "1.8886",
        "B": "0.272",
        "C": "370",
        "D": "0.28571",
        "Tmin": "122",
        "Tmax": "370"
    },
    "VaporPressure": {
        "eqno": "101",
        "A": "58.628",
        "B": "-3467",
        "C": "-5.9337",
        "D": "0.000010248",
        "E": "2",
        "Tmin": "122",
        "Tmax": "370"
    },
    "HeatOfVaporization": {
        "eqno": "106",
        "A": "4.6158E+07",
        "B": "4.5264",
        "C": "-12.408",
        "D": "14.257",
        "E": "-5.881",
        "Tmin": "122",
        "Tmax": "356.95"
    },
    "LiquidHeatCapacityCp": {
        "eqno": "16",
        "A": "41971",
        "B": "267.01",
        "C": "4.7755",
        "D": "0.029953",
        "E": "-0.000037749",
        "Tmin": "162.53",
        "Tmax": "277.5"
    },
    "IdealGasHeatCapacityCp": {
        "eqno": "16",
        "A": "33110",
        "B": "-414.32",
        "C": "10.968",
        "D": "0.00041237",
        "E": "-1.3222E-07",
        "Tmin": "150",
        "Tmax": "1500"
    },
    "SecondVirialCoefficient": {
        "eqno": "104",
        "A": "0.084441",
        "B": "-73.911",
        "C": "-3.4543",
        "D": "-184.05",
        "E": "165.87",
        "Tmin": "185",
        "Tmax": "1845"
    },
    "LiquidViscosity": {
        "eqno": "101",
        "A": "-18.659",
        "B": "731.69",
        "C": "1.5497",
        "D": "-0.000011288",
        "E": "2",
        "Tmin": "120",
        "Tmax": "293"
    },
    "VaporViscosity": {
        "eqno": "102",
        "A": "0.000001285",
        "B": "0.50552",
        "C": "367.45",
        "D": "-2188.3",
        "Tmin": "122",
        "Tmax": "1000"
    },
    "LiquidThermalConductivity": {
        "eqno": "16",
        "A": "-0.007072",
        "B": "-11.763",
        "C": "-0.74777",
        "D": "-0.0024777",
        "E": "-0.0000018714",
        "Tmin": "122",
        "Tmax": "223.33"
    },
    "VaporThermalConductivity": {
        "eqno": "102",
        "A": "0.000028519",
        "B": "1.1477",
        "C": "-97.436",
        "D": "37387",
        "Tmin": "122",
        "Tmax": "1000"
    },
    "SurfaceTension": {
        "eqno": "16",
        "A": "-0.0092911",
        "B": "36.086",
        "C": "-3.4694",
        "D": "0.0016382",
        "E": "-0.000014409",
        "Tmin": "122",
        "Tmax": "356.95"
    },
    "RPPHeatCapacityCp": {
        "eqno": "4",
        "A": "21695",
        "B": "109.1",
        "C": "-0.059305",
        "D": "0.000012442",
        "Tmin": "150",
        "Tmax": "1500"
    },
    "AntoineVaporPressure": {
        "eqno": "10",
        "A": "21.165",
        "B": "1969.1",
        "C": "-19.227",
        "Tmin": "223",
        "Tmax": "330.84"
    },
    "LiquidViscosityRPS": {
        "eqno": "12",
        "A": "-3.0718",
        "B": "-0.020835",
        "Tmin": "120",
        "Tmax": "223.33"
    },
    "COSTALDVolume": "0.136385",
    "DiameterLJ": "4.665338E-10",
    "EnergyLJ": "222.6194",
    "RacketParameter": "0.272",
    "Parachor": "0.0190563",
    "SpecificGravity": "0.678908",
    "Charge": "0",
    "CostaldAcentricFactor": "0.125656",
    "WilsonVolume": "0.06374",
    "UniquacR": "1.694792",
    "UniquacQ": "1.610932",
    "ChaoSeaderAcentricFactor": "0.125656",
    "ChaoSeaderSolubilityParameter": "13820",
    "ChaoSeaderLiquidVolume": "0.06374",
    "CAS": "463-51-4",
    "Smiles": "C=C=O"
}