{
    "LibraryIndex": "920",
    "CompoundID": "Krypton",
    "StructureFormula": "Kr",
    "Family": "24",
    "CriticalTemperature": "209.4",
    "CriticalPressure": "5500000",
    "CriticalVolume": "0.0912",
    "CriticalCompressibility": "0.288",
    "NormalBoilingPointTemperature": "119.74",
    "NormalMeltingPointTemperature": "115.77",
    "TriplePointTemperature": "115.78",
    "TriplePointPressure": "73149.9",
    "MolecularWeight": "83.798",
    "LiquidVolumeAtNormalBoilingPoint": "0.03463",
    "AcentricityFactor": "0.005",
    "RadiusOfGyration": "0",
    "SolubilityParameter": "15280",
    "DipoleMoment": "0",
    "HeatOfFormation": "0",
    "GibbsEnergyOfFormation": "0",
    "AbsEntropy": "163975",
    "HeatOfFusionAtMeltingPoint": "1640130",
    "MatthiasCopemanC1": "0.47685",
    "HeatOfCombustion": "0",
    "SolidDensity": {
        "eqno": "2",
        "A": "33.723",
        "B": "-1.7802E-08",
        "C": "0",
        "D": "0",
        "E": "0",
        "Tmin": "115.76",
        "Tmax": "125.26"
    },
    "LiquidDensity": {
        "eqno": "105",
        "A": "2.5742",
        "B": "0.26395",
        "C": "209.4",
        "D": "0.25018",
        "Tmin": "115.76",
        "Tmax": "209.39"
    },
    "VaporPressure": {
        "eqno": "101",
        "A": "48.208",
        "B": "-1609",
        "C": "-4.9593",
        "D": "0.0000342",
        "E": "2",
        "Tmin": "109.95",
        "Tmax": "209.4"
    },
    "HeatOfVaporization": {
        "eqno": "106",
        "A": "1.7515E+07",
        "B": "2.6595",
        "C": "-6.0031",
        "D": "6.068",
        "E": "-2.2776",
        "Tmin": "115.76",
        "Tmax": "209.39"
    },
    "LiquidHeatCapacityCp": {
        "eqno": "16",
        "A": "36193",
        "B": "105.13",
        "C": "3.9876",
        "D": "0.048456",
        "E": "-0.0001134",
        "Tmin": "115.78",
        "Tmax": "125.28"
    },
    "IdealGasHeatCapacityCp": {
        "eqno": "16",
        "A": "20754",
        "B": "0",
        "C": "0",
        "D": "0",
        "E": "0",
        "Tmin": "10",
        "Tmax": "1500"
    },
    "SecondVirialCoefficient": {
        "eqno": "104",
        "A": "0.047877",
        "B": "-27.168",
        "C": "-0.22682",
        "D": "-0.035005",
        "E": "0.047036",
        "Tmin": "100",
        "Tmax": "1073.15"
    },
    "LiquidViscosity": {
        "eqno": "101",
        "A": "-7.7422",
        "B": "-0.3975",
        "C": "-0.00054036",
        "D": "-9.2221E-08",
        "E": "2",
        "Tmin": "119.75",
        "Tmax": "129.25"
    },
    "VaporViscosity": {
        "eqno": "102",
        "A": "0.0000018282",
        "B": "0.5384",
        "C": "165.83",
        "D": "-1432.5",
        "Tmin": "100",
        "Tmax": "1773.15"
    },
    "LiquidThermalConductivity": {
        "eqno": "16",
        "A": "-0.22624",
        "B": "-10.133",
        "C": "-0.77044",
        "D": "-0.0023081",
        "E": "-0.0000013009",
        "Tmin": "115",
        "Tmax": "209.35"
    },
    "VaporThermalConductivity": {
        "eqno": "102",
        "A": "0.00075369",
        "B": "0.52925",
        "C": "198.58",
        "D": "-4150.2",
        "Tmin": "100",
        "Tmax": "2000"
    },
    "SurfaceTension": {
        "eqno": "16",
        "A": "-0.0038578",
        "B": "222.03",
        "C": "-8.5239",
        "D": "0.041178",
        "E": "-0.00015364",
        "Tmin": "115.78",
        "Tmax": "209.35"
    },
    "RPPHeatCapacityCp": {
        "eqno": "100",
        "A": "20786",
        "B": "0",
        "C": "0",
        "D": "0",
        "E": "0",
        "Tmin": "50",
        "Tmax": "1000"
    },
    "AntoineVaporPressure": {
        "eqno": "10",
        "A": "20.332",
        "B": "977.58",
        "C": "-8.874",
        "Tmin": "125.94",
        "Tmax": "184.73"
    },
    "LiquidViscosityRPS": {
        "eqno": "12",
        "A": "-7.7494",
        "B": "-1.046E-09",
        "Tmin": "119.75",
        "Tmax": "129.25"
    },
    "COSTALDVolume": "0.0912",
    "DiameterLJ": "3.740867E-10",
    "EnergyLJ": "154.7757",
    "RacketParameter": "0.288",
    "FullerVolume": "24.5",
    "MatthiasCopemanC2": "0",
    "Parachor": "0.0123743",
    "SpecificGravity": "2.42087",
    "Charge": "0",
    "CostaldAcentricFactor": "0.005",
    "WilsonVolume": "0.03463",
    "UniquacR": "1.12",
    "UniquacQ": "1.12",
    "MatthiasCopemanC3": "0",
    "ChaoSeaderAcentricFactor": "0.005",
    "ChaoSeaderSolubilityParameter": "15280",
    "ChaoSeaderLiquidVolume": "0.03463",
    "Umr": {
        "group": "1"
    },
    "CAS": "7439-90-9",
    "Smiles": "[Kr]"
}