{
    "LibraryIndex": "526",
    "CompoundID": "M-diethylbenzene",
    "StructureFormula": "CH3CH2(C6H4)CH2CH3",
    "Family": "17",
    "CriticalTemperature": "663",
    "CriticalPressure": "2880000",
    "CriticalVolume": "0.488",
    "CriticalCompressibility": "0.255",
    "NormalBoilingPointTemperature": "454.252",
    "NormalMeltingPointTemperature": "189.23",
    "TriplePointTemperature": "189.259",
    "TriplePointPressure": "0.000664991",
    "MolecularWeight": "134.2182",
    "LiquidVolumeAtNormalBoilingPoint": "0.156083",
    "AcentricityFactor": "0.354019",
    "RadiusOfGyration": "4.742E-10",
    "SolubilityParameter": "17460",
    "DipoleMoment": "1.2E-30",
    "VanDerWaalsVolume": "0.0911199",
    "VanDerWaalsArea": "1.154E+09",
    "HeatOfFormation": "-2.18E+07",
    "GibbsEnergyOfFormation": "1.367E+08",
    "AbsEntropy": "439500",
    "HeatOfFusionAtMeltingPoint": "1.097E+07",
    "MatthiasCopemanC1": "1.07091",
    "HeatOfCombustion": "-5.5546E+09",
    "SolidDensity": {
        "eqno": "2",
        "A": "8.9123",
        "B": "-0.0052595",
        "C": "0",
        "D": "0",
        "E": "0",
        "Tmin": "75.7",
        "Tmax": "189.26"
    },
    "LiquidDensity": {
        "eqno": "105",
        "A": "0.52578",
        "B": "0.25663",
        "C": "663",
        "D": "0.2955",
        "Tmin": "189.26",
        "Tmax": "638.07"
    },
    "VaporPressure": {
        "eqno": "101",
        "A": "153.5552",
        "B": "-11090.88",
        "C": "-19.79091",
        "D": "0.000016846",
        "E": "2",
        "Tmin": "189.26",
        "Tmax": "663"
    },
    "HeatOfVaporization": {
        "eqno": "106",
        "A": "6.460804E+07",
        "B": "0.433681",
        "C": "-0.0244308",
        "D": "0.0154888",
        "E": "-0.0245419",
        "Tmin": "189.26",
        "Tmax": "638.07"
    },
    "SolidHeatCapacityCp": {
        "eqno": "1",
        "A": "214740",
        "Tmin": "0",
        "Tmax": "663"
    },
    "LiquidHeatCapacityCp": {
        "eqno": "16",
        "A": "-15019",
        "B": "20.098",
        "C": "11.35",
        "D": "0.0044704",
        "E": "-0.0000034473",
        "Tmin": "189.26",
        "Tmax": "454.29"
    },
    "IdealGasHeatCapacityCp": {
        "eqno": "16",
        "A": "115660",
        "B": "-734.22",
        "C": "13.598",
        "D": "-0.00034186",
        "E": "8.9326E-08",
        "Tmin": "200",
        "Tmax": "1500"
    },
    "SecondVirialCoefficient": {
        "eqno": "104",
        "A": "0.31772",
        "B": "-425.84",
        "C": "-99.203",
        "D": "-21091",
        "E": "370.32",
        "Tmin": "331.5",
        "Tmax": "1500"
    },
    "LiquidViscosity": {
        "eqno": "101",
        "A": "-11.504",
        "B": "1313.6",
        "C": "0.03353",
        "D": "-9.5074E-08",
        "E": "2",
        "Tmin": "189.26",
        "Tmax": "550"
    },
    "VaporViscosity": {
        "eqno": "102",
        "A": "0.0000018496",
        "B": "0.38185",
        "C": "552.33",
        "D": "63.517",
        "Tmin": "189.26",
        "Tmax": "1000"
    },
    "LiquidThermalConductivity": {
        "eqno": "16",
        "A": "-0.056303",
        "B": "5.6194",
        "C": "-1.5408",
        "D": "-0.00033118",
        "E": "-0.0000010873",
        "Tmin": "189.26",
        "Tmax": "454.29"
    },
    "VaporThermalConductivity": {
        "eqno": "102",
        "A": "0.25407",
        "B": "-0.039016",
        "C": "-216.19",
        "D": "1832400",
        "Tmin": "189.259",
        "Tmax": "1000"
    },
    "SurfaceTension": {
        "eqno": "16",
        "A": "-0.0080943",
        "B": "39.207",
        "C": "-3.1114",
        "D": "0.00028503",
        "E": "-0.0000046024",
        "Tmin": "189.26",
        "Tmax": "638.07"
    },
    "RPPHeatCapacityCp": {
        "eqno": "4",
        "A": "-10213",
        "B": "753.93",
        "C": "-0.40768",
        "D": "0.00008049",
        "Tmin": "200",
        "Tmax": "1500"
    },
    "AntoineVaporPressure": {
        "eqno": "10",
        "A": "20.511",
        "B": "3266.1",
        "C": "-90.749",
        "Tmin": "398.51",
        "Tmax": "588.2"
    },
    "LiquidViscosityRPS": {
        "eqno": "12",
        "A": "-2.2888",
        "B": "-0.01446",
        "Tmin": "189.26",
        "Tmax": "454.29"
    },
    "COSTALDVolume": "0.501609",
    "DiameterLJ": "7.571874E-10",
    "EnergyLJ": "316.2069",
    "RacketParameter": "0.255",
    "FullerVolume": "173.04",
    "MatthiasCopemanC2": "0",
    "Parachor": "0.0633445",
    "SpecificGravity": "0.868204",
    "Charge": "0",
    "CostaldAcentricFactor": "0.354019",
    "WilsonVolume": "0.156083",
    "UniquacR": "6.0066",
    "UniquacQ": "4.616",
    "ApiSrkS2": "0.01075",
    "MatthiasCopemanC3": "0",
    "ChaoSeaderAcentricFactor": "0.354019",
    "ChaoSeaderSolubilityParameter": "17460",
    "ChaoSeaderLiquidVolume": "0.156083",
    "UnifacVLE": {
        "group": "2"
    },
    "UnifacLLE": {
        "group": "2"
    },
    "Asog": {
        "group": "2"
    },
    "GCmethod": {
        "group": "2"
    },
    "Umr": {
        "group": "2"
    },
    "ModifiedUnifac": {
        "group": "2"
    },
    "CAS": "141-93-5",
    "Smiles": "c1(CC)cc(CC)ccc1"
}