{
    "LibraryIndex": "1573",
    "CompoundID": "M-dichlorobenzene",
    "StructureFormula": "(C6H4)Cl2",
    "Family": "29",
    "CriticalTemperature": "683.95",
    "CriticalPressure": "4070000",
    "CriticalVolume": "0.351",
    "CriticalCompressibility": "0.251",
    "NormalBoilingPointTemperature": "446.23",
    "NormalMeltingPointTemperature": "248.39",
    "TriplePointTemperature": "248.39",
    "TriplePointPressure": "6.40787",
    "MolecularWeight": "147.002",
    "LiquidVolumeAtNormalBoilingPoint": "0.114533",
    "AcentricityFactor": "0.27898",
    "RadiusOfGyration": "4.389E-10",
    "SolubilityParameter": "19570",
    "DipoleMoment": "5.74E-30",
    "VanDerWaalsVolume": "0.06732",
    "VanDerWaalsArea": "8.22E+08",
    "HeatOfFormation": "2.57E+07",
    "GibbsEnergyOfFormation": "7.79E+07",
    "AbsEntropy": "343530",
    "HeatOfFusionAtMeltingPoint": "1.259E+07",
    "MatthiasCopemanC1": "0.89625",
    "HeatOfCombustion": "-2.825E+09",
    "SolidDensity": {
        "eqno": "2",
        "A": "11.566",
        "B": "-0.0051312",
        "Tmin": "99.36",
        "Tmax": "248.39"
    },
    "LiquidDensity": {
        "eqno": "105",
        "A": "0.74132",
        "B": "0.26094",
        "C": "683.95",
        "D": "0.31392",
        "Tmin": "248.39",
        "Tmax": "683.95"
    },
    "VaporPressure": {
        "eqno": "101",
        "A": "100.37",
        "B": "-9087",
        "C": "-11.404",
        "D": "0.0000055122",
        "E": "2",
        "Tmin": "248.39",
        "Tmax": "683.95"
    },
    "HeatOfVaporization": {
        "eqno": "106",
        "A": "5.2076E+07",
        "B": "0.15554",
        "C": "-0.20298",
        "D": "0.94291",
        "E": "-0.55524",
        "Tmin": "248.39",
        "Tmax": "683.95"
    },
    "SolidHeatCapacityCp": {
        "eqno": "100",
        "A": "35.885",
        "B": "2025.5",
        "C": "-13.455",
        "D": "0.039723",
        "E": "-0.000043973",
        "Tmin": "221.15",
        "Tmax": "230.65"
    },
    "LiquidHeatCapacityCp": {
        "eqno": "16",
        "A": "89111",
        "B": "785.31",
        "C": "3.6098",
        "D": "0.022491",
        "E": "-0.00001896",
        "Tmin": "248.39",
        "Tmax": "446.23"
    },
    "IdealGasHeatCapacityCp": {
        "eqno": "16",
        "A": "56066",
        "B": "-490.93",
        "C": "12.649",
        "D": "-0.00012726",
        "E": "2.3703E-08",
        "Tmin": "200",
        "Tmax": "1500"
    },
    "SecondVirialCoefficient": {
        "eqno": "104",
        "A": "0.24322",
        "B": "-355.19",
        "C": "-67.685",
        "D": "-40405",
        "E": "47635",
        "Tmin": "341.97",
        "Tmax": "1500"
    },
    "LiquidViscosity": {
        "eqno": "101",
        "A": "-114.79",
        "B": "4907.5",
        "C": "16.374",
        "D": "-0.000020623",
        "E": "2",
        "Tmin": "248.39",
        "Tmax": "547.16"
    },
    "VaporViscosity": {
        "eqno": "102",
        "A": "2.3524E-07",
        "B": "0.71383",
        "C": "257.29",
        "D": "1880.2",
        "Tmin": "248.39",
        "Tmax": "1000"
    },
    "LiquidThermalConductivity": {
        "eqno": "16",
        "A": "0.042347",
        "B": "-224.09",
        "C": "-0.2096",
        "D": "-0.006185",
        "E": "0.0000024486",
        "Tmin": "248.39",
        "Tmax": "446.23"
    },
    "VaporThermalConductivity": {
        "eqno": "102",
        "A": "-1552.3",
        "B": "0.68852",
        "C": "-2.6293E+09",
        "D": "-1.7751E+11",
        "Tmin": "248.39",
        "Tmax": "1000"
    },
    "SurfaceTension": {
        "eqno": "16",
        "A": "-0.018573",
        "B": "119.26",
        "C": "-3.5049",
        "D": "0.0018889",
        "E": "-0.0000041728",
        "Tmin": "248.39",
        "Tmax": "683.95"
    },
    "RPPHeatCapacityCp": {
        "eqno": "4",
        "A": "-13602.18",
        "B": "548.9826",
        "C": "-0.450282",
        "D": "0.00014267",
        "Tmin": "200",
        "Tmax": "1200"
    },
    "RelativeStaticPermittivity": {
        "eqno": "120",
        "A": "-3.829242",
        "B": "-2500",
        "C": "-15",
        "Tmin": "154",
        "Tmax": "449.15"
    },
    "AntoineVaporPressure": {
        "eqno": "10",
        "A": "21.137",
        "B": "3719.2",
        "C": "-59.169",
        "Tmin": "413.64",
        "Tmax": "615.18"
    },
    "LiquidViscosityRPS": {
        "eqno": "13",
        "A": "-2.2726",
        "B": "-0.019593",
        "C": "0.00001463",
        "Tmin": "248.39",
        "Tmax": "547.16"
    },
    "COSTALDVolume": "0.36165",
    "DiameterLJ": "6.914152E-10",
    "EnergyLJ": "308.1505",
    "FullerVolume": "128.34",
    "MatthiasCopemanC2": "0",
    "Parachor": "0.0500142",
    "SpecificGravity": "1.2946",
    "Charge": "0",
    "CostaldAcentricFactor": "0.215834",
    "WilsonVolume": "0.114641",
    "UniquacR": "4.4376",
    "UniquacQ": "3.288",
    "MatthiasCopemanC3": "0",
    "ChaoSeaderAcentricFactor": "0.215834",
    "ChaoSeaderSolubilityParameter": "19575.7",
    "ChaoSeaderLiquidVolume": "0.114641",
    "UnifacVLE": {
        "group": "2"
    },
    "UnifacLLE": {
        "group": "2"
    },
    "Asog": {
        "group": "2"
    },
    "Umr": {
        "group": "2"
    },
    "ModifiedUnifac": {
        "group": "2"
    },
    "CAS": "541-73-1",
    "Smiles": "c1c([Cl])cccc1([Cl])"
}