{
    "LibraryIndex": "1780",
    "CompoundID": "M-nitrotoluene",
    "StructureFormula": "C6H4(NO2)(CH3)",
    "Family": "39",
    "CriticalTemperature": "734",
    "CriticalPressure": "3800000",
    "CriticalVolume": "0.441",
    "CriticalCompressibility": "0.275",
    "NormalBoilingPointTemperature": "504",
    "NormalMeltingPointTemperature": "288.65",
    "TriplePointTemperature": "289.2",
    "TriplePointPressure": "6.84272",
    "MolecularWeight": "137.136",
    "LiquidVolumeAtNormalBoilingPoint": "0.118913",
    "AcentricityFactor": "0.491987",
    "RadiusOfGyration": "4.468E-10",
    "SolubilityParameter": "21470",
    "DipoleMoment": "1.41E-29",
    "VanDerWaalsVolume": "0.07379",
    "VanDerWaalsArea": "9.27E+08",
    "HeatOfFormation": "2.58E+07",
    "GibbsEnergyOfFormation": "1.502E+08",
    "AbsEntropy": "380800",
    "HeatOfFusionAtMeltingPoint": "1.406E+07",
    "MatthiasCopemanC1": "1.21",
    "HeatOfCombustion": "-3.5696E+09",
    "SolidDensity": {
        "eqno": "2",
        "A": "10.744",
        "B": "-0.0041348",
        "C": "0",
        "D": "0",
        "E": "0",
        "Tmin": "115.68",
        "Tmax": "289.2"
    },
    "LiquidDensity": {
        "eqno": "105",
        "A": "0.50673",
        "B": "0.22353",
        "C": "734",
        "D": "0.25642",
        "Tmin": "288.15",
        "Tmax": "734"
    },
    "VaporPressure": {
        "eqno": "101",
        "A": "174.0974",
        "B": "-13266.49",
        "C": "-22.50751",
        "D": "0.0000146534",
        "E": "2",
        "Tmin": "289.2",
        "Tmax": "734"
    },
    "HeatOfVaporization": {
        "eqno": "106",
        "A": "1.23147E+08",
        "B": "2.991682",
        "C": "-5.10633",
        "D": "3.432299",
        "E": "-0.844633",
        "Tmin": "289.2",
        "Tmax": "734"
    },
    "SolidHeatCapacityCp": {
        "eqno": "100",
        "A": "13048",
        "B": "562.7",
        "C": "1.2374",
        "D": "-0.0092642",
        "E": "0.000017191",
        "Tmin": "50",
        "Tmax": "289.2"
    },
    "LiquidHeatCapacityCp": {
        "eqno": "16",
        "A": "165480",
        "B": "678.6",
        "C": "2.6976",
        "D": "0.024579",
        "E": "-0.000018568",
        "Tmin": "289.2",
        "Tmax": "550.5"
    },
    "IdealGasHeatCapacityCp": {
        "eqno": "16",
        "A": "126830",
        "B": "-1053.5",
        "C": "13.982",
        "D": "-0.0011308",
        "E": "3.2272E-07",
        "Tmin": "273",
        "Tmax": "1500"
    },
    "SecondVirialCoefficient": {
        "eqno": "104",
        "A": "0.2479",
        "B": "-319.54",
        "C": "-155.56",
        "D": "-309650",
        "E": "619890",
        "Tmin": "367",
        "Tmax": "1687"
    },
    "LiquidViscosity": {
        "eqno": "101",
        "A": "-219.04",
        "B": "9323.8",
        "C": "32.506",
        "D": "-0.000040609",
        "E": "2",
        "Tmin": "288.15",
        "Tmax": "587.2"
    },
    "VaporViscosity": {
        "eqno": "102",
        "A": "3.6657E-08",
        "B": "0.9283",
        "C": "56.912",
        "D": "-1935.8",
        "Tmin": "289.2",
        "Tmax": "1000"
    },
    "LiquidThermalConductivity": {
        "eqno": "16",
        "A": "-0.16653",
        "B": "2.5129",
        "C": "-1.0577",
        "D": "-0.0003596",
        "E": "-3.0249E-07",
        "Tmin": "289.2",
        "Tmax": "587.2"
    },
    "VaporThermalConductivity": {
        "eqno": "102",
        "A": "0.00013182",
        "B": "0.95336",
        "C": "611.68",
        "D": "32295",
        "Tmin": "289.2",
        "Tmax": "1000"
    },
    "SurfaceTension": {
        "eqno": "16",
        "A": "-0.028468",
        "B": "-35.938",
        "C": "-2.0197",
        "D": "-0.0016065",
        "E": "-6.1813E-07",
        "Tmin": "288.15",
        "Tmax": "710.53"
    },
    "RPPHeatCapacityCp": {
        "eqno": "4",
        "A": "13539",
        "B": "550.05",
        "C": "-0.32279",
        "D": "0.000069576",
        "Tmin": "273",
        "Tmax": "1500"
    },
    "RelativeStaticPermittivity": {
        "eqno": "120",
        "A": "-21.29583",
        "B": "-10000",
        "C": "-71.4",
        "Tmin": "274.15",
        "Tmax": "444.15"
    },
    "AntoineVaporPressure": {
        "eqno": "10",
        "A": "22.046",
        "B": "4823.7",
        "C": "-47.238",
        "Tmin": "444.4",
        "Tmax": "645"
    },
    "LiquidViscosityRPS": {
        "eqno": "12",
        "A": "-2.7259",
        "B": "-0.011764",
        "Tmin": "288.15",
        "Tmax": "587.2"
    },
    "COSTALDVolume": "0.398619",
    "DiameterLJ": "6.686394E-10",
    "EnergyLJ": "459.4169",
    "RacketParameter": "0.247051",
    "FullerVolume": "107.72",
    "MatthiasCopemanC2": "0",
    "Parachor": "0.0536831",
    "SpecificGravity": "1.052241",
    "Charge": "0",
    "CostaldAcentricFactor": "0.491987",
    "WilsonVolume": "0.118913",
    "UniquacR": "4.2801",
    "UniquacQ": "3.272",
    "MatthiasCopemanC3": "0",
    "ChaoSeaderAcentricFactor": "0.491987",
    "ChaoSeaderSolubilityParameter": "21470",
    "ChaoSeaderLiquidVolume": "0.118913",
    "UnifacVLE": {
        "group": "1"
    },
    "UnifacLLE": {
        "group": "1"
    },
    "Asog": {
        "group": "1"
    },
    "Umr": {
        "group": "1"
    },
    "ModifiedUnifac": {
        "group": "1"
    },
    "CAS": "99-08-1",
    "Smiles": "c1(C)cc(N(=O)=O)ccc1"
}