{
    "LibraryIndex": "506",
    "CompoundID": "M-xylene",
    "StructureFormula": "CH3(C6H4)CH3",
    "Family": "17",
    "CriticalTemperature": "617",
    "CriticalPressure": "3541000",
    "CriticalVolume": "0.375",
    "CriticalCompressibility": "0.259",
    "NormalBoilingPointTemperature": "412.34",
    "NormalMeltingPointTemperature": "225.3",
    "TriplePointTemperature": "225.3",
    "TriplePointPressure": "3.18019",
    "MolecularWeight": "106.165",
    "LiquidVolumeAtNormalBoilingPoint": "0.12347",
    "AcentricityFactor": "0.327",
    "RadiusOfGyration": "3.937E-10",
    "SolubilityParameter": "18050",
    "DipoleMoment": "1.0E-30",
    "VanDerWaalsVolume": "0.07066",
    "VanDerWaalsArea": "8.84E+08",
    "HeatOfFormation": "1.732E+07",
    "GibbsEnergyOfFormation": "1.1876E+08",
    "AbsEntropy": "358540",
    "HeatOfFusionAtMeltingPoint": "1.157E+07",
    "MatthiasCopemanC1": "1.0367",
    "HeatOfCombustion": "-4.3318E+09",
    "SolidDensity": {
        "eqno": "2",
        "A": "9.9327",
        "B": "0.00073817",
        "Tmin": "78.15",
        "Tmax": "225.3"
    },
    "LiquidDensity": {
        "eqno": "105",
        "A": "0.68902",
        "B": "0.26086",
        "C": "617",
        "D": "0.27479",
        "Tmin": "225.3",
        "Tmax": "617"
    },
    "VaporPressure": {
        "eqno": "101",
        "A": "97.968",
        "B": "-8164.7",
        "C": "-11.269",
        "D": "0.0000072101",
        "E": "2",
        "Tmin": "225.3",
        "Tmax": "617.05"
    },
    "HeatOfVaporization": {
        "eqno": "106",
        "A": "5.9562E+07",
        "B": "0.67841",
        "C": "-0.38938",
        "D": "0.0061115",
        "E": "0.10219",
        "Tmin": "225.3",
        "Tmax": "617"
    },
    "SolidHeatCapacityCp": {
        "eqno": "100",
        "A": "-25435",
        "B": "2467.9",
        "C": "-25.474",
        "D": "0.12997",
        "E": "-0.0002333",
        "Tmin": "14.62",
        "Tmax": "225.3"
    },
    "LiquidHeatCapacityCp": {
        "eqno": "16",
        "A": "127090",
        "B": "-62.999",
        "C": "9.3762",
        "D": "0.0068549",
        "E": "-0.0000032778",
        "Tmin": "217",
        "Tmax": "540.15"
    },
    "IdealGasHeatCapacityCp": {
        "eqno": "16",
        "A": "62092",
        "B": "-572.21",
        "C": "12.975",
        "D": "0.000062577",
        "E": "-3.7811E-08",
        "Tmin": "150",
        "Tmax": "1500"
    },
    "SecondVirialCoefficient": {
        "eqno": "104",
        "A": "-0.04628",
        "B": "237.59",
        "C": "-144.13",
        "D": "5318.3",
        "E": "-22675",
        "Tmin": "250",
        "Tmax": "1500"
    },
    "LiquidViscosity": {
        "eqno": "101",
        "A": "-13.362",
        "B": "1141.4",
        "C": "0.37182",
        "D": "-3.9423E-07",
        "E": "2",
        "Tmin": "225.3",
        "Tmax": "493.6"
    },
    "VaporViscosity": {
        "eqno": "102",
        "A": "7.2954E-08",
        "B": "0.8097",
        "C": "14.386",
        "D": "8844.3",
        "Tmin": "225.3",
        "Tmax": "1273.15"
    },
    "LiquidThermalConductivity": {
        "eqno": "16",
        "A": "-0.021158",
        "B": "-27.324",
        "C": "-1.2663",
        "D": "-0.0016664",
        "E": "-3.6744E-07",
        "Tmin": "225.3",
        "Tmax": "413.1"
    },
    "VaporThermalConductivity": {
        "eqno": "102",
        "A": "2.8001E-09",
        "B": "2.4298",
        "C": "-575.12",
        "D": "122260",
        "Tmin": "225.3",
        "Tmax": "1000"
    },
    "SurfaceTension": {
        "eqno": "16",
        "A": "-0.0081275",
        "B": "86.069",
        "C": "-3.5983",
        "D": "0.0020602",
        "E": "-0.0000069588",
        "Tmin": "225.3",
        "Tmax": "617"
    },
    "RPPHeatCapacityCp": {
        "eqno": "100",
        "A": "33275",
        "B": "145.81",
        "C": "0.8805",
        "D": "-0.0012502",
        "E": "4.9953E-07",
        "Tmin": "50",
        "Tmax": "1000"
    },
    "RelativeStaticPermittivity": {
        "eqno": "120",
        "A": "-1.796538",
        "B": "-1200",
        "C": "-7.2",
        "Tmin": "274.15",
        "Tmax": "444.15"
    },
    "AntoineVaporPressure": {
        "eqno": "10",
        "A": "21.301",
        "B": "3581.9",
        "C": "-45.994",
        "Tmin": "371",
        "Tmax": "555.15"
    },
    "LiquidViscosityRPS": {
        "eqno": "13",
        "A": "-0.65909",
        "B": "-0.033111",
        "C": "0.000034785",
        "Tmin": "225.3",
        "Tmax": "413.1"
    },
    "COSTALDVolume": "0.37312",
    "DiameterLJ": "6.807103E-10",
    "EnergyLJ": "311.2272",
    "RacketParameter": "0.2593",
    "FullerVolume": "132",
    "MatthiasCopemanC2": "-0.55541",
    "Parachor": "0.0502",
    "SpecificGravity": "0.866882",
    "Charge": "0",
    "CostaldAcentricFactor": "0.32699",
    "WilsonVolume": "0.123391",
    "UniquacR": "4.66",
    "UniquacQ": "3.54",
    "UniquacQP": "3.54",
    "ApiSrkS2": "-0.005645",
    "MatthiasCopemanC3": "1.002",
    "ChaoSeaderAcentricFactor": "0.3045",
    "ChaoSeaderSolubilityParameter": "18041.31",
    "ChaoSeaderLiquidVolume": "0.1235",
    "UnifacVLE": {
        "group": "2"
    },
    "UnifacLLE": {
        "group": "2"
    },
    "Asog": {
        "group": "2"
    },
    "GCmethod": {
        "group": "2"
    },
    "Umr": {
        "group": "2"
    },
    "ModifiedUnifac": {
        "group": "2"
    },
    "CAS": "108-38-3",
    "Smiles": "c1(C)cc(C)ccc1"
}