{
    "LibraryIndex": "1286",
    "CompoundID": "Maleic acid",
    "StructureFormula": "HOOCCHCHCOOH",
    "Family": "52",
    "CriticalTemperature": "773",
    "CriticalPressure": "4990000",
    "CriticalVolume": "0.297",
    "CriticalCompressibility": "0.231",
    "NormalBoilingPointTemperature": "411",
    "NormalMeltingPointTemperature": "403.45",
    "TriplePointTemperature": "403.8",
    "TriplePointPressure": "98.6734",
    "MolecularWeight": "116.0722",
    "LiquidVolumeAtNormalBoilingPoint": "0.090835",
    "AcentricityFactor": "0.997587",
    "RadiusOfGyration": "4.221E-10",
    "SolubilityParameter": "30550",
    "DipoleMoment": "1.06E-29",
    "VanDerWaalsVolume": "0.05642",
    "VanDerWaalsArea": "8.28E+08",
    "HeatOfFormation": "-6.794E+08",
    "GibbsEnergyOfFormation": "-5.96E+08",
    "AbsEntropy": "416000",
    "HeatOfFusionAtMeltingPoint": "3.47E+07",
    "HeatOfCombustion": "-1.2684E+09",
    "SolidDensity": {
        "eqno": "2",
        "A": "13.698",
        "B": "-1.103E-09",
        "C": "0",
        "D": "0",
        "E": "0",
        "Tmin": "293.15",
        "Tmax": "302.65"
    },
    "LiquidDensity": {
        "eqno": "105",
        "A": "0.77641",
        "B": "0.231",
        "C": "773",
        "D": "0.28571",
        "Tmin": "403.8",
        "Tmax": "773"
    },
    "VaporPressure": {
        "eqno": "101",
        "A": "187.4602",
        "B": "-19104.39",
        "C": "-22.78106",
        "D": "6.967225E-06",
        "E": "2",
        "Tmin": "403.8",
        "Tmax": "773"
    },
    "HeatOfVaporization": {
        "eqno": "106",
        "A": "1.16446E+08",
        "B": "0.325842",
        "C": "-0.000233021",
        "D": "0.00216992",
        "E": "0.484323",
        "Tmin": "403.8",
        "Tmax": "773"
    },
    "SolidHeatCapacityCp": {
        "eqno": "100",
        "A": "21794",
        "B": "494.53",
        "C": "-0.98012",
        "D": "0.002955",
        "E": "-0.00000306",
        "Tmin": "60",
        "Tmax": "350"
    },
    "LiquidHeatCapacityCp": {
        "eqno": "16",
        "A": "148240",
        "B": "706.52",
        "C": "4.046",
        "D": "0.018422",
        "E": "-0.000011933",
        "Tmin": "403.8",
        "Tmax": "579.75"
    },
    "IdealGasHeatCapacityCp": {
        "eqno": "16",
        "A": "60872",
        "B": "-493.34",
        "C": "12.58",
        "D": "-0.00028606",
        "E": "0.0000001493",
        "Tmin": "273",
        "Tmax": "1500"
    },
    "LiquidViscosity": {
        "eqno": "101",
        "A": "-11.993",
        "B": "2508.3",
        "C": "0.079857",
        "D": "-1.8766E-08",
        "E": "2",
        "Tmin": "403.45",
        "Tmax": "673"
    },
    "VaporViscosity": {
        "eqno": "102",
        "A": "9.0189E-08",
        "B": "0.80995",
        "C": "111.91",
        "D": "-70.22",
        "Tmin": "403",
        "Tmax": "1000"
    },
    "LiquidThermalConductivity": {
        "eqno": "16",
        "A": "-0.061944",
        "B": "-160.86",
        "C": "-0.25643",
        "D": "-0.0021458",
        "E": "2.3954E-07",
        "Tmin": "403.8",
        "Tmax": "612"
    },
    "VaporThermalConductivity": {
        "eqno": "102",
        "A": "0.0000021963",
        "B": "1.4191",
        "C": "-285.03",
        "D": "84199",
        "Tmin": "274",
        "Tmax": "1000"
    },
    "SurfaceTension": {
        "eqno": "16",
        "A": "-0.010076",
        "B": "568.91",
        "C": "-6.0243",
        "D": "0.0070715",
        "E": "-0.0000080291",
        "Tmin": "403.45",
        "Tmax": "773"
    },
    "RPPHeatCapacityCp": {
        "eqno": "4",
        "A": "13513",
        "B": "415.8",
        "C": "-0.29766",
        "D": "0.000084426",
        "Tmin": "273",
        "Tmax": "1500"
    },
    "AntoineVaporPressure": {
        "eqno": "10",
        "A": "23.374",
        "B": "5133",
        "C": "-132.2",
        "Tmin": "477.36",
        "Tmax": "695.27"
    },
    "LiquidViscosityRPS": {
        "eqno": "12",
        "A": "-1.0564",
        "B": "-0.010763",
        "Tmin": "403.45",
        "Tmax": "565"
    },
    "COSTALDVolume": "0.300877",
    "DiameterLJ": "7.224859E-10",
    "EnergyLJ": "258.283",
    "RacketParameter": "0.231",
    "FullerVolume": "97.28",
    "Parachor": "0.03631",
    "SpecificGravity": "1.407506",
    "Charge": "0",
    "CostaldAcentricFactor": "0.997587",
    "WilsonVolume": "0.090835",
    "UniquacR": "3.7193",
    "UniquacQ": "3.315",
    "ChaoSeaderAcentricFactor": "0.997587",
    "ChaoSeaderSolubilityParameter": "30550",
    "ChaoSeaderLiquidVolume": "0.090835",
    "UnifacVLE": {
        "group": "1"
    },
    "UnifacLLE": {
        "group": "1"
    },
    "Asog": {
        "group": "2"
    },
    "Umr": {
        "group": "1"
    },
    "ModifiedUnifac": {
        "group": "1"
    },
    "CAS": "110-16-7",
    "Smiles": "C(=O)(O)/C=C\\C(=O)O"
}