{
    "LibraryIndex": "1298",
    "CompoundID": "Maleic anhydride",
    "StructureFormula": "-CHCOOCOCH-",
    "Family": "54",
    "CriticalTemperature": "721",
    "CriticalPressure": "7280000",
    "CriticalVolume": "0.219",
    "CriticalCompressibility": "0.266",
    "NormalBoilingPointTemperature": "473.15",
    "NormalMeltingPointTemperature": "325.927",
    "TriplePointTemperature": "325.72",
    "TriplePointPressure": "289.837",
    "MolecularWeight": "98.05688",
    "LiquidVolumeAtNormalBoilingPoint": "0.0741215",
    "AcentricityFactor": "0.54629",
    "RadiusOfGyration": "3.312E-10",
    "SolubilityParameter": "25870",
    "DipoleMoment": "1.31E-29",
    "VanDerWaalsVolume": "0.04404",
    "VanDerWaalsArea": "5.96E+08",
    "HeatOfFormation": "-4.167E+08",
    "GibbsEnergyOfFormation": "-3.55E+08",
    "AbsEntropy": "317000",
    "HeatOfFusionAtMeltingPoint": "1.15E+07",
    "MatthiasCopemanC1": "1.06669",
    "HeatOfCombustion": "-1.38E+09",
    "SolidDensity": {
        "eqno": "2",
        "A": "15.277",
        "B": "-6.3556E-16",
        "C": "0",
        "D": "0",
        "E": "0",
        "Tmin": "0",
        "Tmax": "9.5"
    },
    "LiquidDensity": {
        "eqno": "105",
        "A": "1.1934",
        "B": "0.26153",
        "C": "721",
        "D": "0.35499",
        "Tmin": "325.65",
        "Tmax": "721"
    },
    "VaporPressure": {
        "eqno": "101",
        "A": "181.7423",
        "B": "-13070.32",
        "C": "-23.83155",
        "D": "0.0000182982",
        "E": "2",
        "Tmin": "323.15",
        "Tmax": "721"
    },
    "HeatOfVaporization": {
        "eqno": "106",
        "A": "5.7421E+07",
        "B": "0.064434",
        "C": "0.35394",
        "D": "-0.39596",
        "E": "0.19018",
        "Tmin": "325.72",
        "Tmax": "721"
    },
    "SolidHeatCapacityCp": {
        "eqno": "100",
        "A": "29806",
        "B": "250.42",
        "C": "0.11616",
        "D": "-0.000014644",
        "E": "6.1402E-07",
        "Tmin": "88.51",
        "Tmax": "320.3"
    },
    "LiquidHeatCapacityCp": {
        "eqno": "16",
        "A": "7374.3",
        "B": "412.68",
        "C": "8.4647",
        "D": "0.0086559",
        "E": "-0.0000060424",
        "Tmin": "325.72",
        "Tmax": "540.5"
    },
    "IdealGasHeatCapacityCp": {
        "eqno": "16",
        "A": "-39596",
        "B": "-169.57",
        "C": "12.496",
        "D": "6.0181E-08",
        "E": "4.1214E-08",
        "Tmin": "273",
        "Tmax": "1000.1"
    },
    "SecondVirialCoefficient": {
        "eqno": "104",
        "A": "0.1425",
        "B": "-178.8",
        "C": "-68.898",
        "D": "-34417",
        "E": "12399",
        "Tmin": "360.5",
        "Tmax": "1980.5"
    },
    "LiquidViscosity": {
        "eqno": "101",
        "A": "93.459",
        "B": "-2744.1",
        "C": "-16.078",
        "D": "0.000015825",
        "E": "2",
        "Tmin": "325.72",
        "Tmax": "475.15"
    },
    "VaporViscosity": {
        "eqno": "102",
        "A": "7.5282E-08",
        "B": "0.87275",
        "C": "168.46",
        "D": "-10784",
        "Tmin": "325.72",
        "Tmax": "1000"
    },
    "LiquidThermalConductivity": {
        "eqno": "16",
        "A": "0.0050361",
        "B": "-137.05",
        "C": "-0.46443",
        "D": "-0.0029116",
        "E": "3.9472E-07",
        "Tmin": "325.72",
        "Tmax": "475.15"
    },
    "VaporThermalConductivity": {
        "eqno": "102",
        "A": "0.00030053",
        "B": "0.85542",
        "C": "634.55",
        "D": "21624",
        "Tmin": "274",
        "Tmax": "1000"
    },
    "SurfaceTension": {
        "eqno": "16",
        "A": "-0.010279",
        "B": "305",
        "C": "-4.7222",
        "D": "0.0047657",
        "E": "-0.0000071881",
        "Tmin": "325.72",
        "Tmax": "721"
    },
    "RPPHeatCapacityCp": {
        "eqno": "4",
        "A": "-7976.2",
        "B": "560.7",
        "C": "-0.59917",
        "D": "0.00024312",
        "Tmin": "273",
        "Tmax": "1000.1"
    },
    "RelativeStaticPermittivity": {
        "eqno": "120",
        "A": "-4.509298",
        "B": "-10000",
        "C": "-153",
        "Tmin": "314.15",
        "Tmax": "484.15"
    },
    "AntoineVaporPressure": {
        "eqno": "10",
        "A": "25.037",
        "B": "7200.5",
        "C": "56.284",
        "Tmin": "434",
        "Tmax": "637.78"
    },
    "LiquidViscosityRPS": {
        "eqno": "12",
        "A": "-2.9417",
        "B": "-0.010534",
        "Tmin": "325.72",
        "Tmax": "475.15"
    },
    "COSTALDVolume": "0.233687",
    "DiameterLJ": "5.510636E-10",
    "EnergyLJ": "400.3339",
    "RacketParameter": "0.266",
    "MatthiasCopemanC2": "0",
    "Parachor": "0.03219",
    "SpecificGravity": "1.32293",
    "Charge": "0",
    "CostaldAcentricFactor": "0.54629",
    "WilsonVolume": "0.0741215",
    "UniquacR": "2.903098",
    "UniquacQ": "2.384",
    "MatthiasCopemanC3": "0",
    "ChaoSeaderAcentricFactor": "0.54629",
    "ChaoSeaderSolubilityParameter": "25870",
    "ChaoSeaderLiquidVolume": "0.0741215",
    "UnifacVLE": {
        "group": "1"
    },
    "Asog": {
        "group": "1"
    },
    "CAS": "108-31-6",
    "Smiles": "O1C(=O)C=CC1(=O)"
}