{
    "LibraryIndex": "1681",
    "CompoundID": "Methyl iodide",
    "StructureFormula": "CH3I",
    "Family": "31",
    "CriticalTemperature": "528",
    "CriticalPressure": "7370000",
    "CriticalVolume": "0.185",
    "CriticalCompressibility": "0.311",
    "NormalBoilingPointTemperature": "315.58",
    "NormalMeltingPointTemperature": "206.7",
    "TriplePointTemperature": "206.7",
    "TriplePointPressure": "254.555",
    "MolecularWeight": "141.939",
    "LiquidVolumeAtNormalBoilingPoint": "0.062667",
    "AcentricityFactor": "0.19716",
    "RadiusOfGyration": "1.035E-10",
    "SolubilityParameter": "20180",
    "DipoleMoment": "5.4E-30",
    "VanDerWaalsVolume": "0.03285",
    "VanDerWaalsArea": "4.6E+08",
    "HeatOfFormation": "1.3E+07",
    "GibbsEnergyOfFormation": "1.47E+07",
    "AbsEntropy": "254000",
    "HeatOfFusionAtMeltingPoint": "0",
    "MatthiasCopemanC1": "0.70016",
    "HeatOfCombustion": "-7.096E+08",
    "SolidDensity": {
        "eqno": "2",
        "A": "22.404",
        "B": "-0.011982",
        "Tmin": "82.68",
        "Tmax": "206.7"
    },
    "LiquidDensity": {
        "eqno": "105",
        "A": "1.3975",
        "B": "0.25854",
        "C": "528",
        "D": "0.2679",
        "Tmin": "206.7",
        "Tmax": "528"
    },
    "VaporPressure": {
        "eqno": "101",
        "A": "56.57754",
        "B": "-4804.529",
        "C": "-5.238128",
        "D": "3.097144E-06",
        "E": "2",
        "Tmin": "204.8",
        "Tmax": "528"
    },
    "HeatOfVaporization": {
        "eqno": "106",
        "A": "3.3737E+07",
        "B": "-0.25822",
        "C": "1.7219",
        "D": "-2.0034",
        "E": "0.83642",
        "Tmin": "206.7",
        "Tmax": "528"
    },
    "SolidHeatCapacityCp": {
        "eqno": "1",
        "A": "58860",
        "Tmin": "298",
        "Tmax": "5"
    },
    "LiquidHeatCapacityCp": {
        "eqno": "16",
        "A": "81227",
        "B": "-510450",
        "C": "4831.2",
        "D": "-15.234",
        "E": "0.016088",
        "Tmin": "243.45",
        "Tmax": "315.58"
    },
    "IdealGasHeatCapacityCp": {
        "eqno": "16",
        "A": "33243",
        "B": "-588.89",
        "C": "11.23",
        "D": "0.00016737",
        "E": "-5.0885E-08",
        "Tmin": "100",
        "Tmax": "1500"
    },
    "SecondVirialCoefficient": {
        "eqno": "104",
        "A": "0.091986",
        "B": "-122.96",
        "C": "-8.7523",
        "D": "-736.97",
        "E": "-492.42",
        "Tmin": "264",
        "Tmax": "1500"
    },
    "LiquidViscosity": {
        "eqno": "101",
        "A": "-8.0691",
        "B": "650.82",
        "C": "-0.30881",
        "D": "-1.1201E-07",
        "E": "2",
        "Tmin": "206.7",
        "Tmax": "428"
    },
    "VaporViscosity": {
        "eqno": "102",
        "A": "7.1469E-07",
        "B": "0.6322",
        "C": "292.39",
        "D": "-1664.7",
        "Tmin": "206.7",
        "Tmax": "1000"
    },
    "LiquidThermalConductivity": {
        "eqno": "16",
        "A": "0.025022",
        "B": "-2.7147",
        "C": "-2.1673",
        "D": "-0.0005511",
        "E": "-0.000004231",
        "Tmin": "206.7",
        "Tmax": "315.58"
    },
    "VaporThermalConductivity": {
        "eqno": "102",
        "A": "0.15913",
        "B": "0.010769",
        "C": "1577.4",
        "D": "2109400",
        "Tmin": "206.7",
        "Tmax": "1500"
    },
    "SurfaceTension": {
        "eqno": "16",
        "A": "-0.0089542",
        "B": "133.23",
        "C": "-3.9845",
        "D": "0.0046929",
        "E": "-0.000012515",
        "Tmin": "206.7",
        "Tmax": "528"
    },
    "RPPHeatCapacityCp": {
        "eqno": "4",
        "A": "14904.66",
        "B": "117.0558",
        "C": "-0.0691448",
        "D": "0.0000175067",
        "Tmin": "200",
        "Tmax": "1200"
    },
    "RelativeStaticPermittivity": {
        "eqno": "120",
        "A": "-5.958672",
        "B": "-3550",
        "C": "-21.3",
        "Tmin": "274.15",
        "Tmax": "444.15"
    },
    "AntoineVaporPressure": {
        "eqno": "10",
        "A": "22.002",
        "B": "3357.9",
        "C": "5.1859",
        "Tmin": "317.11",
        "Tmax": "460.36"
    },
    "LiquidViscosityRPS": {
        "eqno": "13",
        "A": "-1.7257",
        "B": "-0.031602",
        "C": "0.000039256",
        "Tmin": "206.7",
        "Tmax": "315.58"
    },
    "COSTALDVolume": "0.174097",
    "DiameterLJ": "4.318402E-10",
    "EnergyLJ": "514.6174",
    "FullerVolume": "52.63",
    "MatthiasCopemanC2": "0",
    "Parachor": "0.026",
    "SpecificGravity": "2.29293",
    "Charge": "0",
    "CostaldAcentricFactor": "0.192721",
    "WilsonVolume": "0.062667",
    "UniquacR": "2.1651",
    "UniquacQ": "1.84",
    "MatthiasCopemanC3": "0",
    "ChaoSeaderAcentricFactor": "0.192721",
    "ChaoSeaderSolubilityParameter": "20172.3",
    "ChaoSeaderLiquidVolume": "0.062667",
    "UnifacVLE": {
        "group": "1"
    },
    "Asog": {
        "group": "1"
    },
    "Umr": {
        "group": "1"
    },
    "ModifiedUnifac": {
        "group": "1"
    },
    "CAS": "74-88-4",
    "Smiles": "CI"
}