{
    "LibraryIndex": "1502",
    "CompoundID": "Methyl chloride",
    "StructureFormula": "CH3Cl",
    "Family": "65",
    "CriticalTemperature": "416.2",
    "CriticalPressure": "6680000",
    "CriticalVolume": "0.143",
    "CriticalCompressibility": "0.276",
    "NormalBoilingPointTemperature": "248.95",
    "NormalMeltingPointTemperature": "175.45",
    "TriplePointTemperature": "175.43",
    "TriplePointPressure": "867.6",
    "MolecularWeight": "50.48752",
    "LiquidVolumeAtNormalBoilingPoint": "0.05059",
    "AcentricityFactor": "0.151",
    "RadiusOfGyration": "1.442E-10",
    "SolubilityParameter": "17320",
    "DipoleMoment": "6.24E-30",
    "VanDerWaalsVolume": "0.02529",
    "VanDerWaalsArea": "3.92E+08",
    "HeatOfFormation": "-8.196E+07",
    "GibbsEnergyOfFormation": "-5.844E+07",
    "AbsEntropy": "234180",
    "HeatOfFusionAtMeltingPoint": "6548000",
    "MatthiasCopemanC1": "0.72126",
    "HeatOfCombustion": "-6.7538E+08",
    "SolidDensity": {
        "eqno": "2",
        "A": "23.768",
        "B": "-8.4567E-09",
        "Tmin": "173.15",
        "Tmax": "182.65"
    },
    "LiquidDensity": {
        "eqno": "105",
        "A": "1.6672",
        "B": "0.24865",
        "C": "416.26",
        "D": "0.26843",
        "Tmin": "175.43",
        "Tmax": "416.25"
    },
    "VaporPressure": {
        "eqno": "101",
        "A": "73.95113",
        "B": "-4332.347",
        "C": "-8.308415",
        "D": "0.0000132119",
        "E": "2",
        "Tmin": "173.65",
        "Tmax": "416.25"
    },
    "HeatOfVaporization": {
        "eqno": "106",
        "A": "3.0406E+07",
        "B": "0.41721",
        "C": "-0.045158",
        "D": "-0.067629",
        "E": "0.055437",
        "Tmin": "175.43",
        "Tmax": "403.58"
    },
    "SolidHeatCapacityCp": {
        "eqno": "100",
        "A": "-13360",
        "B": "1161",
        "C": "-7.5627",
        "D": "0.02419",
        "E": "-0.000020195",
        "Tmin": "21.27",
        "Tmax": "174.01"
    },
    "LiquidHeatCapacityCp": {
        "eqno": "16",
        "A": "72914",
        "B": "778.6",
        "C": "-9.5627",
        "D": "0.081286",
        "E": "-0.000092921",
        "Tmin": "173.15",
        "Tmax": "373.15"
    },
    "IdealGasHeatCapacityCp": {
        "eqno": "16",
        "A": "32790.34",
        "B": "-743.4513",
        "C": "11.51178",
        "D": "-0.0000302967",
        "E": "1.138778E-09",
        "Tmin": "10",
        "Tmax": "1500"
    },
    "SecondVirialCoefficient": {
        "eqno": "104",
        "A": "0.093165",
        "B": "-83.56",
        "C": "-5.5445",
        "D": "-44.171",
        "E": "-96.437",
        "Tmin": "208.12",
        "Tmax": "1665"
    },
    "LiquidViscosity": {
        "eqno": "101",
        "A": "-60.189",
        "B": "2252.1",
        "C": "8.022",
        "D": "-0.000019477",
        "E": "2",
        "Tmin": "175.43",
        "Tmax": "413.15"
    },
    "VaporViscosity": {
        "eqno": "102",
        "A": "8.5916E-08",
        "B": "0.87071",
        "C": "35.619",
        "D": "35.603",
        "Tmin": "230",
        "Tmax": "700"
    },
    "LiquidThermalConductivity": {
        "eqno": "16",
        "A": "-0.22503",
        "B": "12.649",
        "C": "-0.64685",
        "D": "-0.0003032",
        "E": "-0.0000029812",
        "Tmin": "175.43",
        "Tmax": "350"
    },
    "VaporThermalConductivity": {
        "eqno": "102",
        "A": "-22144",
        "B": "0.7661",
        "C": "-4.8548E+10",
        "D": "-3.7839E+10",
        "Tmin": "175.43",
        "Tmax": "750"
    },
    "SurfaceTension": {
        "eqno": "16",
        "A": "-0.0076213",
        "B": "308.98",
        "C": "-6.5963",
        "D": "0.015546",
        "E": "-0.000032087",
        "Tmin": "175.43",
        "Tmax": "403.58"
    },
    "RPPHeatCapacityCp": {
        "eqno": "100",
        "A": "29749",
        "B": "-14.55",
        "C": "0.25534",
        "D": "-0.0003088",
        "E": "1.1707E-07",
        "Tmin": "200",
        "Tmax": "1000"
    },
    "RelativeStaticPermittivity": {
        "eqno": "120",
        "A": "-14.43039",
        "B": "-9354.477",
        "C": "95.04079",
        "Tmin": "203",
        "Tmax": "416"
    },
    "AntoineVaporPressure": {
        "eqno": "10",
        "A": "21.62",
        "B": "2413.2",
        "C": "-9.7185",
        "Tmin": "250.13",
        "Tmax": "373.15"
    },
    "LiquidViscosityRPS": {
        "eqno": "13",
        "A": "-2.7183",
        "B": "-0.027855",
        "C": "0.000026626",
        "Tmin": "175.43",
        "Tmax": "413.15"
    },
    "COSTALDVolume": "0.13628",
    "DiameterLJ": "3.94E-10",
    "EnergyLJ": "414",
    "FullerVolume": "43.83",
    "MatthiasCopemanC2": "0.00835",
    "Parachor": "0.0197",
    "SpecificGravity": "0.915",
    "Charge": "0",
    "CostaldAcentricFactor": "0.1472",
    "WilsonVolume": "0.0501264",
    "UniquacR": "1.667106",
    "UniquacQ": "1.568",
    "MatthiasCopemanC3": "-0.20828",
    "ChaoSeaderAcentricFactor": "0.153068",
    "ChaoSeaderSolubilityParameter": "19719.7",
    "ChaoSeaderLiquidVolume": "0.0501264",
    "Asog": {
        "group": "1"
    },
    "CAS": "74-87-3",
    "Smiles": "C[Cl]"
}