{
    "LibraryIndex": "1278",
    "CompoundID": "Methacrylic acid",
    "StructureFormula": "CH2C(CH3)COOH",
    "Family": "51",
    "CriticalTemperature": "643",
    "CriticalPressure": "4700000",
    "CriticalVolume": "0.27",
    "CriticalCompressibility": "0.244",
    "NormalBoilingPointTemperature": "433.65",
    "NormalMeltingPointTemperature": "288.15",
    "TriplePointTemperature": "288.15",
    "TriplePointPressure": "58.5615",
    "MolecularWeight": "86.08924",
    "LiquidVolumeAtNormalBoilingPoint": "0.0852843",
    "AcentricityFactor": "0.331817",
    "RadiusOfGyration": "3.412E-10",
    "SolubilityParameter": "21000",
    "DipoleMoment": "5.5E-30",
    "VanDerWaalsVolume": "0.05036",
    "VanDerWaalsArea": "7.65E+08",
    "HeatOfFormation": "-3.68E+08",
    "GibbsEnergyOfFormation": "-2.88E+08",
    "AbsEntropy": "350000",
    "HeatOfFusionAtMeltingPoint": "0",
    "MatthiasCopemanC1": "0.75969",
    "HeatOfCombustion": "-1.93E+09",
    "SolidDensity": {
        "eqno": "2",
        "A": "15.003",
        "B": "-0.0057166",
        "C": "0",
        "D": "0",
        "E": "0",
        "Tmin": "115.26",
        "Tmax": "288.15"
    },
    "LiquidDensity": {
        "eqno": "105",
        "A": "2.1083",
        "B": "0.37321",
        "C": "643",
        "D": "0.47743",
        "Tmin": "288.15",
        "Tmax": "642.32"
    },
    "VaporPressure": {
        "eqno": "101",
        "A": "9.843112",
        "B": "-6238.161",
        "C": "2.965581",
        "D": "-0.0000105952",
        "E": "2",
        "Tmin": "288.15",
        "Tmax": "662"
    },
    "HeatOfVaporization": {
        "eqno": "106",
        "A": "7009500",
        "B": "-12.334",
        "C": "36.335",
        "D": "-42.263",
        "E": "18.248",
        "Tmin": "288.15",
        "Tmax": "642.32"
    },
    "SolidHeatCapacityCp": {
        "eqno": "100",
        "A": "6059",
        "B": "735.3",
        "C": "-1.363",
        "D": "0.0032903",
        "E": "-0.0000034953",
        "Tmin": "50",
        "Tmax": "288.15"
    },
    "LiquidHeatCapacityCp": {
        "eqno": "16",
        "A": "130480",
        "B": "265.42",
        "C": "3.971",
        "D": "0.026507",
        "E": "-0.000026858",
        "Tmin": "288.15",
        "Tmax": "434.15"
    },
    "IdealGasHeatCapacityCp": {
        "eqno": "16",
        "A": "48894",
        "B": "-560.59",
        "C": "12.692",
        "D": "-0.00031458",
        "E": "1.4407E-07",
        "Tmin": "273",
        "Tmax": "1200.1"
    },
    "LiquidViscosity": {
        "eqno": "101",
        "A": "0.054722",
        "B": "968.88",
        "C": "-1.7788",
        "D": "0.0000031087",
        "E": "2",
        "Tmin": "280",
        "Tmax": "543"
    },
    "VaporViscosity": {
        "eqno": "102",
        "A": "9.4671E-08",
        "B": "0.81582",
        "C": "92.397",
        "D": "383.72",
        "Tmin": "288.15",
        "Tmax": "1000"
    },
    "LiquidThermalConductivity": {
        "eqno": "16",
        "A": "-0.067603",
        "B": "29.398",
        "C": "-1.512",
        "D": "0.00016774",
        "E": "-0.0000015769",
        "Tmin": "192.9",
        "Tmax": "530"
    },
    "VaporThermalConductivity": {
        "eqno": "102",
        "A": "0.000065218",
        "B": "1.0555",
        "C": "299.46",
        "D": "29315",
        "Tmin": "288.15",
        "Tmax": "1000"
    },
    "SurfaceTension": {
        "eqno": "16",
        "A": "-0.0048338",
        "B": "515.9",
        "C": "-7.199",
        "D": "0.011548",
        "E": "-0.000015481",
        "Tmin": "288.15",
        "Tmax": "642.32"
    },
    "RPPHeatCapacityCp": {
        "eqno": "4",
        "A": "-15268",
        "B": "462.54",
        "C": "-0.34541",
        "D": "0.00010342",
        "Tmin": "273",
        "Tmax": "1200.1"
    },
    "AntoineVaporPressure": {
        "eqno": "10",
        "A": "20.957",
        "B": "2984.3",
        "C": "-118.31",
        "Tmin": "386.53",
        "Tmax": "572.03"
    },
    "LiquidViscosityRPS": {
        "eqno": "12",
        "A": "-3.4335",
        "B": "-0.010614",
        "Tmin": "280",
        "Tmax": "434.15"
    },
    "COSTALDVolume": "0.267781",
    "DiameterLJ": "6.553879E-10",
    "EnergyLJ": "261.6541",
    "RacketParameter": "0.244",
    "FullerVolume": "89.68",
    "MatthiasCopemanC2": "3.6523",
    "Parachor": "0.0349816",
    "SpecificGravity": "1.021898",
    "Charge": "0",
    "CostaldAcentricFactor": "0.331817",
    "WilsonVolume": "0.0852843",
    "UniquacR": "3.3197",
    "UniquacQ": "3.06",
    "MatthiasCopemanC3": "-6.7774",
    "ChaoSeaderAcentricFactor": "0.331817",
    "ChaoSeaderSolubilityParameter": "21000",
    "ChaoSeaderLiquidVolume": "0.0852843",
    "UnifacVLE": {
        "group": "1"
    },
    "UnifacLLE": {
        "group": "1"
    },
    "Asog": {
        "group": "1"
    },
    "Umr": {
        "group": "1"
    },
    "ModifiedUnifac": {
        "group": "1"
    },
    "CAS": "79-41-4",
    "Smiles": "C=C(C)C(=O)O"
}