{
    "LibraryIndex": "1301",
    "CompoundID": "Methyl formate",
    "StructureFormula": "HCOOCH3",
    "Family": "55",
    "CriticalTemperature": "487.2",
    "CriticalPressure": "6000000",
    "CriticalVolume": "0.172",
    "CriticalCompressibility": "0.255",
    "NormalBoilingPointTemperature": "304.9",
    "NormalMeltingPointTemperature": "174.15",
    "TriplePointTemperature": "174.15",
    "TriplePointPressure": "6.88085",
    "MolecularWeight": "60.05196",
    "LiquidVolumeAtNormalBoilingPoint": "0.06214",
    "AcentricityFactor": "0.253",
    "RadiusOfGyration": "2.387E-10",
    "SolubilityParameter": "20500",
    "DipoleMoment": "5.9E-30",
    "VanDerWaalsVolume": "0.03251",
    "VanDerWaalsArea": "5.09E+08",
    "HeatOfFormation": "-3.524E+08",
    "GibbsEnergyOfFormation": "-2.95E+08",
    "AbsEntropy": "285200",
    "HeatOfFusionAtMeltingPoint": "7531000",
    "MatthiasCopemanC1": "0.86547",
    "HeatOfCombustion": "-8.924E+08",
    "SolidDensity": {
        "eqno": "2",
        "A": "23.868",
        "B": "-0.015242",
        "Tmin": "69.66",
        "Tmax": "174.15"
    },
    "LiquidDensity": {
        "eqno": "105",
        "A": "1.213",
        "B": "0.23619",
        "C": "487.2",
        "D": "0.24621",
        "Tmin": "174.15",
        "Tmax": "487.15"
    },
    "VaporPressure": {
        "eqno": "101",
        "A": "70.6458",
        "B": "-5401.751",
        "C": "-7.334787",
        "D": "5.934343E-06",
        "E": "2",
        "Tmin": "174.15",
        "Tmax": "487.2"
    },
    "HeatOfVaporization": {
        "eqno": "106",
        "A": "7.0578E+07",
        "B": "3.7855",
        "C": "-9.0874",
        "D": "9.6043",
        "E": "-3.7868",
        "Tmin": "174.15",
        "Tmax": "487.15"
    },
    "SolidHeatCapacityCp": {
        "eqno": "1",
        "A": "78860",
        "Tmin": "293",
        "Tmax": "5"
    },
    "LiquidHeatCapacityCp": {
        "eqno": "16",
        "A": "97064",
        "B": "3377.4",
        "C": "-42.373",
        "D": "0.22648",
        "E": "-0.00029763",
        "Tmin": "174.15",
        "Tmax": "304.9"
    },
    "IdealGasHeatCapacityCp": {
        "eqno": "16",
        "A": "41319",
        "B": "-570.15",
        "C": "12.038",
        "D": "-0.000034216",
        "E": "-2.7109E-11",
        "Tmin": "250",
        "Tmax": "1500"
    },
    "SecondVirialCoefficient": {
        "eqno": "104",
        "A": "0.095846",
        "B": "-103.82",
        "C": "-15.924",
        "D": "-865.24",
        "E": "-816.67",
        "Tmin": "243.6",
        "Tmax": "1948.8"
    },
    "LiquidViscosity": {
        "eqno": "101",
        "A": "-9.949",
        "B": "1214.4",
        "C": "-0.53562",
        "D": "0.000010346",
        "E": "2",
        "Tmin": "250",
        "Tmax": "343"
    },
    "VaporViscosity": {
        "eqno": "102",
        "A": "0.0000069776",
        "B": "0.31537",
        "C": "1034.6",
        "D": "13.293",
        "Tmin": "174.15",
        "Tmax": "1000"
    },
    "LiquidThermalConductivity": {
        "eqno": "16",
        "A": "0.0090363",
        "B": "23.594",
        "C": "-1.5627",
        "D": "0.00089283",
        "E": "-0.0000058101",
        "Tmin": "146.16",
        "Tmax": "386.16"
    },
    "VaporThermalConductivity": {
        "eqno": "102",
        "A": "-817050",
        "B": "-0.23016",
        "C": "2.5314E+08",
        "D": "-1.5205E+12",
        "Tmin": "174.15",
        "Tmax": "1000"
    },
    "SurfaceTension": {
        "eqno": "16",
        "A": "-0.013259",
        "B": "47.144",
        "C": "-3.0417",
        "D": "0.001159",
        "E": "-0.0000083817",
        "Tmin": "174.15",
        "Tmax": "470.72"
    },
    "RPPHeatCapacityCp": {
        "eqno": "100",
        "A": "18932",
        "B": "149.77",
        "C": "0.096448",
        "D": "-0.00024287",
        "E": "1.1158E-07",
        "Tmin": "250",
        "Tmax": "1000"
    },
    "RelativeStaticPermittivity": {
        "eqno": "120",
        "A": "-7.378946",
        "B": "-4250",
        "C": "-25.5",
        "Tmin": "274.15",
        "Tmax": "444.15"
    },
    "AntoineVaporPressure": {
        "eqno": "10",
        "A": "21.436",
        "B": "2622.4",
        "C": "-40.294",
        "Tmin": "293.15",
        "Tmax": "437.77"
    },
    "LiquidViscosityRPS": {
        "eqno": "13",
        "A": "1.0549",
        "B": "-0.05168",
        "C": "0.000071381",
        "Tmin": "250",
        "Tmax": "304.9"
    },
    "COSTALDVolume": "0.16931",
    "DiameterLJ": "5.348593E-10",
    "EnergyLJ": "232.362",
    "FullerVolume": "53.26",
    "MatthiasCopemanC2": "-0.22908",
    "Parachor": "0.0245",
    "SpecificGravity": "0.981244",
    "Charge": "0",
    "CostaldAcentricFactor": "0.25698",
    "WilsonVolume": "0.0620841",
    "UniquacR": "2.1431",
    "UniquacQ": "2.036",
    "MatthiasCopemanC3": "0.86272",
    "ChaoSeaderAcentricFactor": "0.257",
    "ChaoSeaderSolubilityParameter": "20503.4",
    "ChaoSeaderLiquidVolume": "0.0620841",
    "UnifacVLE": {
        "group": "1"
    },
    "Asog": {
        "group": "1"
    },
    "Umr": {
        "group": "1"
    },
    "ModifiedUnifac": {
        "group": "1"
    },
    "CAS": "107-31-3",
    "Smiles": "COC(=O)"
}