{
    "LibraryIndex": "1801",
    "CompoundID": "Methyl mercaptan",
    "StructureFormula": "CH3SH",
    "Family": "41",
    "CriticalTemperature": "470",
    "CriticalPressure": "7230000",
    "CriticalVolume": "0.145",
    "CriticalCompressibility": "0.268",
    "NormalBoilingPointTemperature": "279.11",
    "NormalMeltingPointTemperature": "150.18",
    "TriplePointTemperature": "150.18",
    "TriplePointPressure": "3.14785",
    "MolecularWeight": "48.10746",
    "LiquidVolumeAtNormalBoilingPoint": "0.05552",
    "AcentricityFactor": "0.15",
    "RadiusOfGyration": "1.606E-10",
    "SolubilityParameter": "19470",
    "DipoleMoment": "5.07E-30",
    "VanDerWaalsVolume": "0.02848",
    "VanDerWaalsArea": "4.39E+08",
    "HeatOfFormation": "-2.26E+07",
    "GibbsEnergyOfFormation": "-9920000",
    "AbsEntropy": "255000",
    "HeatOfFusionAtMeltingPoint": "5904000",
    "MatthiasCopemanC1": "0.89544",
    "HeatOfCombustion": "-1.1517E+09",
    "SolidDensity": {
        "eqno": "2",
        "A": "27.366",
        "B": "-0.020311",
        "C": "0",
        "D": "0",
        "E": "0",
        "Tmin": "60.07",
        "Tmax": "150.18"
    },
    "LiquidDensity": {
        "eqno": "105",
        "A": "1.954",
        "B": "0.28171",
        "C": "470",
        "D": "0.28737",
        "Tmin": "150.18",
        "Tmax": "453.12"
    },
    "VaporPressure": {
        "eqno": "101",
        "A": "115.1598",
        "B": "-6300.053",
        "C": "-14.66478",
        "D": "0.0000195265",
        "E": "2",
        "Tmin": "150.18",
        "Tmax": "469.95"
    },
    "HeatOfVaporization": {
        "eqno": "106",
        "A": "3.221375E+07",
        "B": "-0.00310105",
        "C": "0.657759",
        "D": "-0.0249162",
        "E": "-0.340052",
        "Tmin": "150.18",
        "Tmax": "469.95"
    },
    "SolidHeatCapacityCp": {
        "eqno": "100",
        "A": "-10842",
        "B": "883.79",
        "C": "1.0741",
        "D": "-0.071254",
        "E": "0.00032202",
        "Tmin": "14.96",
        "Tmax": "150"
    },
    "LiquidHeatCapacityCp": {
        "eqno": "16",
        "A": "87318",
        "B": "-59222",
        "C": "550.29",
        "D": "-1.6599",
        "E": "0.001702",
        "Tmin": "150.18",
        "Tmax": "298.15"
    },
    "IdealGasHeatCapacityCp": {
        "eqno": "16",
        "A": "38535",
        "B": "-588.35",
        "C": "11.232",
        "D": "0.00044782",
        "E": "-1.6363E-07",
        "Tmin": "100",
        "Tmax": "1500"
    },
    "SecondVirialCoefficient": {
        "eqno": "104",
        "A": "0.086994",
        "B": "-107.34",
        "C": "-7.9703",
        "D": "-15.158",
        "E": "-109.37",
        "Tmin": "235",
        "Tmax": "1880"
    },
    "LiquidViscosity": {
        "eqno": "101",
        "A": "-8.947",
        "B": "607.01",
        "C": "-0.26447",
        "D": "0.0000011807",
        "E": "2",
        "Tmin": "150.18",
        "Tmax": "373"
    },
    "VaporViscosity": {
        "eqno": "102",
        "A": "1.9969E-07",
        "B": "0.74097",
        "C": "130.67",
        "D": "-839.04",
        "Tmin": "150.18",
        "Tmax": "1000"
    },
    "LiquidThermalConductivity": {
        "eqno": "16",
        "A": "-0.011242",
        "B": "-11.424",
        "C": "-1.1701",
        "D": "-0.0017729",
        "E": "-0.0000012043",
        "Tmin": "150.18",
        "Tmax": "279.11"
    },
    "VaporThermalConductivity": {
        "eqno": "102",
        "A": "0.000024689",
        "B": "1.1702",
        "C": "4.7184",
        "D": "35466",
        "Tmin": "150.18",
        "Tmax": "1000"
    },
    "SurfaceTension": {
        "eqno": "16",
        "A": "-0.01346",
        "B": "41.423",
        "C": "-3.0112",
        "D": "0.0013607",
        "E": "-0.000009249",
        "Tmin": "150.18",
        "Tmax": "469.95"
    },
    "RPPHeatCapacityCp": {
        "eqno": "100",
        "A": "34247",
        "B": "10.917",
        "C": "0.21543",
        "D": "-0.00026706",
        "E": "1.0044E-07",
        "Tmin": "50",
        "Tmax": "1000"
    },
    "AntoineVaporPressure": {
        "eqno": "10",
        "A": "21.379",
        "B": "2532.6",
        "C": "-21.919",
        "Tmin": "283.15",
        "Tmax": "419.46"
    },
    "LiquidViscosityRPS": {
        "eqno": "12",
        "A": "-4.1431",
        "B": "-0.015082",
        "Tmin": "150.18",
        "Tmax": "279.11"
    },
    "COSTALDVolume": "0.150999",
    "DiameterLJ": "4.759988E-10",
    "EnergyLJ": "268.0997",
    "RacketParameter": "0.268",
    "FullerVolume": "48.04",
    "MatthiasCopemanC2": "-1.4449",
    "Parachor": "0.0220648",
    "SpecificGravity": "0.863192",
    "UniquacR": "1.877",
    "UniquacQ": "1.676",
    "ApiSrkS1": "0.529899",
    "ApiSrkS2": "0.141244",
    "MatthiasCopemanC3": "2.7511",
    "UnifacVLE": {
        "group": "1"
    },
    "Asog": {
        "group": "1"
    },
    "GCmethod": {
        "group": "1"
    },
    "Umr": {
        "group": "1"
    },
    "ModifiedUnifac": {
        "group": "1"
    },
    "CAS": "74-93-1",
    "Smiles": "CS"
}