{
    "LibraryIndex": "1",
    "CompoundID": "Methane",
    "StructureFormula": "CH4",
    "Family": "1",
    "CriticalTemperature": "190.56",
    "CriticalPressure": "4599000",
    "CriticalVolume": "0.0986",
    "CriticalCompressibility": "0.286",
    "NormalBoilingPointTemperature": "111.66",
    "NormalMeltingPointTemperature": "90.694",
    "TriplePointTemperature": "90.694",
    "TriplePointPressure": "11696",
    "MolecularWeight": "16.04246",
    "LiquidVolumeAtNormalBoilingPoint": "0.03554",
    "AcentricityFactor": "0.011",
    "RadiusOfGyration": "1.118E-10",
    "SolubilityParameter": "11600",
    "DipoleMoment": "0",
    "VanDerWaalsVolume": "0.01705",
    "VanDerWaalsArea": "2.88E+08",
    "HeatOfFormation": "-7.452E+07",
    "GibbsEnergyOfFormation": "-5.049E+07",
    "AbsEntropy": "186270",
    "HeatOfFusionAtMeltingPoint": "941400",
    "MatthiasCopemanC1": "0.49258",
    "HeatOfCombustion": "-8.0262E+08",
    "SolidDensity": {
        "eqno": "2",
        "A": "33.457",
        "B": "-0.033547",
        "C": "-0.000155",
        "Tmin": "23.15",
        "Tmax": "90.69"
    },
    "LiquidDensity": {
        "eqno": "105",
        "A": "1.894",
        "B": "0.23603",
        "C": "191.05",
        "D": "0.21974",
        "Tmin": "90.68",
        "Tmax": "191.04"
    },
    "VaporPressure": {
        "eqno": "101",
        "A": "39.98844",
        "B": "-1337.308",
        "C": "-3.580049",
        "D": "0.0000320698",
        "E": "2",
        "Tmin": "83.65",
        "Tmax": "191.03"
    },
    "HeatOfVaporization": {
        "eqno": "106",
        "A": "1.4418E+07",
        "B": "2.3055",
        "C": "-5.4199",
        "D": "5.658",
        "E": "-2.1286",
        "Tmin": "90.67",
        "Tmax": "190.55"
    },
    "SolidHeatCapacityCp": {
        "eqno": "100",
        "A": "-3039.8",
        "B": "1292.4",
        "C": "-15.448",
        "D": "0.082442",
        "E": "-0.000070636",
        "Tmin": "22.85",
        "Tmax": "90.67"
    },
    "LiquidHeatCapacityCp": {
        "eqno": "16",
        "A": "61157",
        "B": "5034.1",
        "C": "-48.913",
        "D": "-0.22998",
        "E": "0.0022243",
        "Tmin": "88.71",
        "Tmax": "190"
    },
    "IdealGasHeatCapacityCp": {
        "eqno": "16",
        "A": "33151.9",
        "B": "-1220.001",
        "C": "12.0907",
        "D": "-0.000384791",
        "E": "9.896403E-08",
        "Tmin": "10",
        "Tmax": "1500"
    },
    "SecondVirialCoefficient": {
        "eqno": "104",
        "A": "0.051983",
        "B": "-25.636",
        "C": "-0.24722",
        "D": "0.42759",
        "E": "-0.39805",
        "Tmin": "102",
        "Tmax": "1500"
    },
    "LiquidViscosity": {
        "eqno": "101",
        "A": "-45.328",
        "B": "724.39",
        "C": "6.5917",
        "D": "-0.00010373",
        "E": "2",
        "Tmin": "88.15",
        "Tmax": "190"
    },
    "VaporViscosity": {
        "eqno": "102",
        "A": "5.3432E-07",
        "B": "0.58831",
        "C": "114.58",
        "D": "-1338.5",
        "Tmin": "90",
        "Tmax": "1000"
    },
    "LiquidThermalConductivity": {
        "eqno": "16",
        "A": "0.011567",
        "B": "-46.041",
        "C": "0.10435",
        "D": "-0.012133",
        "E": "-0.0000051716",
        "Tmin": "90.69",
        "Tmax": "180"
    },
    "VaporThermalConductivity": {
        "eqno": "102",
        "A": "0.0000074705",
        "B": "1.4432",
        "C": "-57.569",
        "D": "587.82",
        "Tmin": "90.694",
        "Tmax": "600"
    },
    "SurfaceTension": {
        "eqno": "16",
        "A": "-0.040703",
        "B": "-6.9523",
        "C": "-2.3114",
        "D": "-0.0055565",
        "E": "0.0000057595",
        "Tmin": "90",
        "Tmax": "193.15"
    },
    "RPPHeatCapacityCp": {
        "eqno": "100",
        "A": "37981",
        "B": "-74.622",
        "C": "0.3019",
        "D": "-0.00028327",
        "E": "9.0711E-08",
        "Tmin": "50",
        "Tmax": "1000"
    },
    "RelativeStaticPermittivity": {
        "eqno": "120",
        "A": "-7.274133",
        "B": "-850",
        "C": "-5.1",
        "Tmin": "80.81667",
        "Tmax": "250.8167"
    },
    "AntoineVaporPressure": {
        "eqno": "10",
        "A": "20.701",
        "B": "1035",
        "C": "1.2704",
        "Tmin": "114.61",
        "Tmax": "170.99"
    },
    "LiquidViscosityRPS": {
        "eqno": "13",
        "A": "-6.4555",
        "B": "-0.023994",
        "C": "0.000010045",
        "Tmin": "88.15",
        "Tmax": "190"
    },
    "COSTALDVolume": "0.09939",
    "DiameterLJ": "3.871667E-10",
    "EnergyLJ": "137.3608",
    "RacketParameter": "0.2876",
    "FullerVolume": "25.14",
    "MatthiasCopemanC2": "0",
    "Parachor": "0.0129",
    "SpecificGravity": "0.299394",
    "Charge": "0",
    "CostaldAcentricFactor": "0.0074",
    "WilsonVolume": "0.0378392",
    "UniquacR": "1.1239",
    "UniquacQ": "1.152",
    "UniquacQP": "0",
    "ApiSrkS2": "-0.012223",
    "MatthiasCopemanC3": "0",
    "ChaoSeaderAcentricFactor": "0",
    "ChaoSeaderSolubilityParameter": "11618.44",
    "ChaoSeaderLiquidVolume": "0.0378392",
    "GCmethod": {
        "group": "1"
    },
    "Umr": {
        "group": "1"
    },
    "CAS": "74-82-8",
    "Smiles": "C"
}