{
    "LibraryIndex": "1061",
    "CompoundID": "Methyl isopropyl ketone",
    "StructureFormula": "CH3CH(CH3)COCH3",
    "Family": "26",
    "CriticalTemperature": "567.7",
    "CriticalPressure": "3620000",
    "CriticalVolume": "0.31",
    "CriticalCompressibility": "0.238",
    "NormalBoilingPointTemperature": "367.55",
    "NormalMeltingPointTemperature": "180.15",
    "TriplePointTemperature": "180.15",
    "TriplePointPressure": "0.295357",
    "MolecularWeight": "86.1323",
    "LiquidVolumeAtNormalBoilingPoint": "0.10791",
    "AcentricityFactor": "0.216",
    "RadiusOfGyration": "3.465E-10",
    "SolubilityParameter": "17710",
    "DipoleMoment": "9.21E-30",
    "VanDerWaalsVolume": "0.05949",
    "VanDerWaalsArea": "8.53E+08",
    "HeatOfFormation": "-2.626E+08",
    "GibbsEnergyOfFormation": "-1.393E+08",
    "AbsEntropy": "369900",
    "HeatOfFusionAtMeltingPoint": "9343000",
    "MatthiasCopemanC1": "0.97206",
    "HeatOfCombustion": "-2.877E+09",
    "SolidDensity": {
        "eqno": "2",
        "A": "13.23",
        "B": "-0.0077997",
        "Tmin": "72.06",
        "Tmax": "181.15"
    },
    "LiquidDensity": {
        "eqno": "105",
        "A": "0.22922",
        "B": "0.13849",
        "C": "567.7",
        "D": "0.18207",
        "Tmin": "180.15",
        "Tmax": "533.76"
    },
    "VaporPressure": {
        "eqno": "101",
        "A": "57.033",
        "B": "-5794.3",
        "C": "-5.09",
        "D": "0.0000023975",
        "E": "2",
        "Tmin": "180.15",
        "Tmax": "553.4"
    },
    "HeatOfVaporization": {
        "eqno": "106",
        "A": "1.3282E+07",
        "B": "-7.596951",
        "C": "21.963",
        "D": "-24.77369",
        "E": "10.66731",
        "Tmin": "180.15",
        "Tmax": "553.4"
    },
    "SolidHeatCapacityCp": {
        "eqno": "100",
        "A": "-10888",
        "B": "1207.3",
        "C": "-2.162",
        "D": "-0.01776",
        "E": "0.00010358",
        "Tmin": "11.38",
        "Tmax": "168.93"
    },
    "LiquidHeatCapacityCp": {
        "eqno": "16",
        "A": "142840",
        "B": "463.87",
        "C": "4.1439",
        "D": "0.020347",
        "E": "-0.000013989",
        "Tmin": "180.15",
        "Tmax": "440"
    },
    "IdealGasHeatCapacityCp": {
        "eqno": "16",
        "A": "65899",
        "B": "-628.39",
        "C": "12.858",
        "D": "0.000023331",
        "E": "-5.0246E-08",
        "Tmin": "200",
        "Tmax": "1500"
    },
    "SecondVirialCoefficient": {
        "eqno": "104",
        "A": "0.15924",
        "B": "-129.27",
        "C": "-49.269",
        "D": "147.14",
        "E": "-29532",
        "Tmin": "276.7",
        "Tmax": "2000"
    },
    "LiquidViscosity": {
        "eqno": "101",
        "A": "-11.042",
        "B": "1043.1",
        "C": "-0.038423",
        "D": "1.1535E-07",
        "E": "2",
        "Tmin": "180.15",
        "Tmax": "467"
    },
    "VaporViscosity": {
        "eqno": "102",
        "A": "1.5484E-07",
        "B": "0.72865",
        "C": "149.15",
        "D": "-3826.1",
        "Tmin": "180.15",
        "Tmax": "1000"
    },
    "LiquidThermalConductivity": {
        "eqno": "16",
        "A": "-0.11038",
        "B": "18.412",
        "C": "-1.2824",
        "D": "-0.000057222",
        "E": "-0.000001541",
        "Tmin": "165.9",
        "Tmax": "435.9"
    },
    "VaporThermalConductivity": {
        "eqno": "102",
        "A": "-6058400",
        "B": "-0.090573",
        "C": "3.176E+09",
        "D": "-2.84E+13",
        "Tmin": "180.15",
        "Tmax": "1000"
    },
    "SurfaceTension": {
        "eqno": "16",
        "A": "-0.034236",
        "B": "-71.227",
        "C": "-1.6594",
        "D": "-0.0035924",
        "E": "0.00000136",
        "Tmin": "180.15",
        "Tmax": "553.4"
    },
    "RPPHeatCapacityCp": {
        "eqno": "4",
        "A": "-2912.064",
        "B": "498.7328",
        "C": "-0.293257",
        "D": "0.0000666093",
        "Tmin": "200",
        "Tmax": "1200"
    },
    "AntoineVaporPressure": {
        "eqno": "10",
        "A": "22.404",
        "B": "3959.7",
        "C": "-3.419",
        "Tmin": "346.95",
        "Tmax": "494.47"
    },
    "LiquidViscosityRPS": {
        "eqno": "13",
        "A": "1.0599",
        "B": "-0.046952",
        "C": "0.00005801",
        "Tmin": "180.15",
        "Tmax": "367.55"
    },
    "COSTALDVolume": "0.3156",
    "DiameterLJ": "7.070876E-10",
    "EnergyLJ": "211.2074",
    "RacketParameter": "0.259",
    "FullerVolume": "108.71",
    "MatthiasCopemanC2": "0",
    "Parachor": "0.0421",
    "SpecificGravity": "0.814223",
    "Charge": "0",
    "CostaldAcentricFactor": "0.3323",
    "WilsonVolume": "0.106975",
    "UniquacR": "3.9215",
    "UniquacQ": "3.412",
    "MatthiasCopemanC3": "0",
    "ChaoSeaderAcentricFactor": "0.350039",
    "ChaoSeaderSolubilityParameter": "18253.3",
    "ChaoSeaderLiquidVolume": "0.106975",
    "UnifacVLE": {
        "group": "1"
    },
    "UnifacLLE": {
        "group": "1"
    },
    "Asog": {
        "group": "1"
    },
    "Umr": {
        "group": "1"
    },
    "ModifiedUnifac": {
        "group": "1"
    },
    "CAS": "563-80-4",
    "Smiles": "CC(=O)C(C)C"
}