{
    "LibraryIndex": "1405",
    "CompoundID": "Methyl tert-butyl ether",
    "StructureFormula": "CH3OC(CH3)3",
    "Family": "61",
    "CriticalTemperature": "497.1",
    "CriticalPressure": "3430000",
    "CriticalVolume": "0.329",
    "CriticalCompressibility": "0.273",
    "NormalBoilingPointTemperature": "328.35",
    "NormalMeltingPointTemperature": "164.55",
    "TriplePointTemperature": "164.55",
    "TriplePointPressure": "0.535656",
    "MolecularWeight": "88.14818",
    "LiquidVolumeAtNormalBoilingPoint": "0.119887",
    "AcentricityFactor": "0.266059",
    "RadiusOfGyration": "3.179E-10",
    "SolubilityParameter": "15070",
    "DipoleMoment": "4.54E-30",
    "VanDerWaalsVolume": "0.06171",
    "VanDerWaalsArea": "9.08E+08",
    "HeatOfFormation": "-2.835E+08",
    "GibbsEnergyOfFormation": "-1.175E+08",
    "AbsEntropy": "357800",
    "HeatOfFusionAtMeltingPoint": "7600000",
    "MatthiasCopemanC1": "0.88771",
    "HeatOfCombustion": "-3.1049E+09",
    "SolidDensity": {
        "eqno": "2",
        "A": "12.4",
        "B": "-0.0084317",
        "Tmin": "65.82",
        "Tmax": "164.55"
    },
    "LiquidDensity": {
        "eqno": "105",
        "A": "1.013",
        "B": "0.29119",
        "C": "513.95",
        "D": "0.39929",
        "Tmin": "164.55",
        "Tmax": "513.94"
    },
    "VaporPressure": {
        "eqno": "101",
        "A": "63.31041",
        "B": "-5322.676",
        "C": "-6.212745",
        "D": "3.951136E-06",
        "E": "2",
        "Tmin": "164.55",
        "Tmax": "497.1"
    },
    "HeatOfVaporization": {
        "eqno": "106",
        "A": "7.685222E+07",
        "B": "4.561833",
        "C": "-12.06881",
        "D": "13.61234",
        "E": "-5.569118",
        "Tmin": "164.55",
        "Tmax": "497.1"
    },
    "SolidHeatCapacityCp": {
        "eqno": "100",
        "A": "-11840",
        "B": "1396",
        "C": "-5.8523",
        "D": "-0.0092711",
        "E": "0.00016154",
        "Tmin": "11.5",
        "Tmax": "164.56"
    },
    "LiquidHeatCapacityCp": {
        "eqno": "16",
        "A": "135550",
        "B": "-54.229",
        "C": "8.6558",
        "D": "0.010329",
        "E": "-0.0000078206",
        "Tmin": "164.55",
        "Tmax": "328.35"
    },
    "IdealGasHeatCapacityCp": {
        "eqno": "16",
        "A": "89729",
        "B": "-682.14",
        "C": "12.912",
        "D": "0.000021441",
        "E": "-2.0192E-08",
        "Tmin": "200",
        "Tmax": "1500"
    },
    "SecondVirialCoefficient": {
        "eqno": "104",
        "A": "0.18862",
        "B": "-199.25",
        "C": "-24.367",
        "D": "-1558.5",
        "E": "1368.5",
        "Tmin": "248.6",
        "Tmax": "1809.6"
    },
    "LiquidViscosity": {
        "eqno": "101",
        "A": "-7.136",
        "B": "821.59",
        "C": "-0.64419",
        "D": "4.8322E-07",
        "E": "2",
        "Tmin": "180",
        "Tmax": "449.93"
    },
    "VaporViscosity": {
        "eqno": "102",
        "A": "1.6185E-07",
        "B": "0.73614",
        "C": "130.03",
        "D": "-727.78",
        "Tmin": "164.55",
        "Tmax": "1000"
    },
    "LiquidThermalConductivity": {
        "eqno": "16",
        "A": "0.073008",
        "B": "306.73",
        "C": "-6.3111",
        "D": "0.019235",
        "E": "-0.000037933",
        "Tmin": "164.55",
        "Tmax": "460.87"
    },
    "VaporThermalConductivity": {
        "eqno": "102",
        "A": "0.00023034",
        "B": "0.92128",
        "C": "391.6",
        "D": "80274",
        "Tmin": "164.55",
        "Tmax": "1000"
    },
    "SurfaceTension": {
        "eqno": "16",
        "A": "-0.032821",
        "B": "-29.327",
        "C": "-1.9813",
        "D": "-0.0032789",
        "E": "0.0000010144",
        "Tmin": "164.55",
        "Tmax": "497.1"
    },
    "RPPHeatCapacityCp": {
        "eqno": "4",
        "A": "17448",
        "B": "439.33",
        "C": "-0.18821",
        "D": "0.000026432",
        "Tmin": "200",
        "Tmax": "1500"
    },
    "AntoineVaporPressure": {
        "eqno": "10",
        "A": "20.427",
        "B": "2381.9",
        "C": "-60.58",
        "Tmin": "299.35",
        "Tmax": "444.59"
    },
    "LiquidViscosityRPS": {
        "eqno": "13",
        "A": "-1.2431",
        "B": "-0.0329",
        "C": "0.000034374",
        "Tmin": "180",
        "Tmax": "449.93"
    },
    "COSTALDVolume": "0.330153",
    "DiameterLJ": "6.11761E-10",
    "EnergyLJ": "303.0697",
    "RacketParameter": "0.267213",
    "FullerVolume": "113.33",
    "MatthiasCopemanC2": "0.07186",
    "Parachor": "0.0447",
    "SpecificGravity": "0.745835",
    "Charge": "0",
    "CostaldAcentricFactor": "0.266059",
    "WilsonVolume": "0.119887",
    "UniquacR": "4.0678",
    "UniquacQ": "3.632",
    "ApiSrkS1": "0.956082",
    "ApiSrkS2": "-0.053074",
    "MatthiasCopemanC3": "-0.32865",
    "ChaoSeaderAcentricFactor": "0.266059",
    "ChaoSeaderSolubilityParameter": "15070",
    "ChaoSeaderLiquidVolume": "0.119887",
    "UnifacVLE": {
        "group": "1"
    },
    "UnifacLLE": {
        "group": "1"
    },
    "Asog": {
        "group": "1"
    },
    "Umr": {
        "group": "1"
    },
    "ModifiedUnifac": {
        "group": "1"
    },
    "CAS": "1634-04-4",
    "Smiles": "COC(C)(C)C"
}