{
    "LibraryIndex": "1701",
    "CompoundID": "Methylamine",
    "StructureFormula": "CH3NH2",
    "Family": "34",
    "CriticalTemperature": "430",
    "CriticalPressure": "7420000",
    "CriticalVolume": "0.125",
    "CriticalCompressibility": "0.259",
    "NormalBoilingPointTemperature": "266.82",
    "NormalMeltingPointTemperature": "179.69",
    "TriplePointTemperature": "179.69",
    "TriplePointPressure": "176.712",
    "MolecularWeight": "31.0571",
    "LiquidVolumeAtNormalBoilingPoint": "0.04734",
    "AcentricityFactor": "0.284",
    "RadiusOfGyration": "1.722E-10",
    "SolubilityParameter": "21270",
    "DipoleMoment": "4.37E-30",
    "VanDerWaalsVolume": "0.02421",
    "VanDerWaalsArea": "3.86E+08",
    "HeatOfFormation": "-2.297E+07",
    "GibbsEnergyOfFormation": "3.207E+07",
    "AbsEntropy": "243300",
    "HeatOfFusionAtMeltingPoint": "6134000",
    "MatthiasCopemanC1": "0.89954",
    "HeatOfCombustion": "-9.7508E+08",
    "SolidDensity": {
        "eqno": "2",
        "A": "27.369",
        "B": "-2.884E-16",
        "Tmin": "0",
        "Tmax": "9.5"
    },
    "LiquidDensity": {
        "eqno": "105",
        "A": "1.39",
        "B": "0.21405",
        "C": "430.05",
        "D": "0.2275",
        "Tmin": "179.69",
        "Tmax": "430.05"
    },
    "VaporPressure": {
        "eqno": "101",
        "A": "74.79969",
        "B": "-5067.174",
        "C": "-8.028002",
        "D": "7.988835E-06",
        "E": "2",
        "Tmin": "177.35",
        "Tmax": "430.05"
    },
    "HeatOfVaporization": {
        "eqno": "106",
        "A": "4.6499E+07",
        "B": "1.6058",
        "C": "-3.2311",
        "D": "3.4082",
        "E": "-1.3345",
        "Tmin": "179.69",
        "Tmax": "416.87"
    },
    "SolidHeatCapacityCp": {
        "eqno": "100",
        "A": "1635.5",
        "B": "-28.175",
        "C": "12.529",
        "D": "-0.11137",
        "E": "0.0002958",
        "Tmin": "23.04",
        "Tmax": "174.75"
    },
    "LiquidHeatCapacityCp": {
        "eqno": "16",
        "A": "90815",
        "B": "374.96",
        "C": "2.7431",
        "D": "0.031527",
        "E": "-0.000044978",
        "Tmin": "179.69",
        "Tmax": "266.82"
    },
    "IdealGasHeatCapacityCp": {
        "eqno": "16",
        "A": "40540",
        "B": "-902.15",
        "C": "12.495",
        "D": "-0.00072761",
        "E": "0.0000002382",
        "Tmin": "150",
        "Tmax": "1500"
    },
    "SecondVirialCoefficient": {
        "eqno": "104",
        "A": "0.066821",
        "B": "-65.837",
        "C": "-8.5011",
        "D": "-94.417",
        "E": "-459.86",
        "Tmin": "215",
        "Tmax": "1720"
    },
    "LiquidViscosity": {
        "eqno": "101",
        "A": "9.645",
        "B": "448.12",
        "C": "-3.737",
        "D": "0.000017508",
        "E": "2",
        "Tmin": "179.69",
        "Tmax": "373"
    },
    "VaporViscosity": {
        "eqno": "102",
        "A": "5.4475E-07",
        "B": "0.58715",
        "C": "230.63",
        "D": "-2982.2",
        "Tmin": "179.69",
        "Tmax": "1000"
    },
    "LiquidThermalConductivity": {
        "eqno": "16",
        "A": "0.19876",
        "B": "9592",
        "C": "-137.2",
        "D": "0.62482",
        "E": "-0.00097954",
        "Tmin": "179.69",
        "Tmax": "393.15"
    },
    "VaporThermalConductivity": {
        "eqno": "102",
        "A": "-51.979",
        "B": "1.0721",
        "C": "-4.4966E+08",
        "D": "4.2697E+09",
        "Tmin": "179.69",
        "Tmax": "650"
    },
    "SurfaceTension": {
        "eqno": "16",
        "A": "-0.020476",
        "B": "2.1889",
        "C": "-2.3303",
        "D": "-0.001444",
        "E": "-0.0000052886",
        "Tmin": "179.69",
        "Tmax": "416.87"
    },
    "RPPHeatCapacityCp": {
        "eqno": "100",
        "A": "34863",
        "B": "-17.643",
        "C": "0.33582",
        "D": "-0.00039394",
        "E": "1.4559E-07",
        "Tmin": "50",
        "Tmax": "1000"
    },
    "RelativeStaticPermittivity": {
        "eqno": "120",
        "A": "-14.41837",
        "B": "-9790.434",
        "C": "101.0628",
        "Tmin": "198",
        "Tmax": "430"
    },
    "AntoineVaporPressure": {
        "eqno": "10",
        "A": "21.666",
        "B": "2268.7",
        "C": "-43.059",
        "Tmin": "258.75",
        "Tmax": "379.45"
    },
    "LiquidViscosityRPS": {
        "eqno": "13",
        "A": "0.21748",
        "B": "-0.052484",
        "C": "0.000076834",
        "Tmin": "179.69",
        "Tmax": "327.78"
    },
    "COSTALDVolume": "0.12229",
    "DiameterLJ": "4.719782E-10",
    "EnergyLJ": "216.9006",
    "FullerVolume": "31.99",
    "MatthiasCopemanC2": "-0.02871",
    "Parachor": "0.0179",
    "SpecificGravity": "0.667434",
    "Charge": "0",
    "CostaldAcentricFactor": "0.2872",
    "WilsonVolume": "0.0447131",
    "UniquacR": "1.5959",
    "UniquacQ": "1.544",
    "MatthiasCopemanC3": "0.44308",
    "ChaoSeaderAcentricFactor": "0.281272",
    "ChaoSeaderSolubilityParameter": "23116",
    "ChaoSeaderLiquidVolume": "0.0447131",
    "UnifacVLE": {
        "group": "1"
    },
    "Asog": {
        "group": "1"
    },
    "Umr": {
        "group": "1"
    },
    "ModifiedUnifac": {
        "group": "1"
    },
    "CAS": "74-89-5",
    "Smiles": "CN"
}