{
    "LibraryIndex": "1410",
    "CompoundID": "Methyl isobutyl ether",
    "StructureFormula": "CH3OCH2CH(CH3)CH3",
    "Family": "61",
    "CriticalTemperature": "497",
    "CriticalPressure": "3410000",
    "CriticalVolume": "0.329",
    "CriticalCompressibility": "0.272",
    "NormalBoilingPointTemperature": "331.7",
    "MolecularWeight": "88.14818",
    "LiquidVolumeAtNormalBoilingPoint": "0.121242",
    "AcentricityFactor": "0.307786",
    "RadiusOfGyration": "3.608E-10",
    "SolubilityParameter": "15100",
    "DipoleMoment": "4.7E-30",
    "VanDerWaalsVolume": "0.06172",
    "VanDerWaalsArea": "8.88E+08",
    "HeatOfFormation": "-2.66E+08",
    "GibbsEnergyOfFormation": "-1.07E+08",
    "AbsEntropy": "381000",
    "HeatOfFusionAtMeltingPoint": "0",
    "HeatOfCombustion": "-3.122E+09",
    "SolidDensity": {
        "eqno": "2",
        "A": "11.4",
        "B": "-2.3039E-16",
        "C": "0",
        "D": "0",
        "E": "0",
        "Tmin": "0",
        "Tmax": "9.5"
    },
    "LiquidDensity": {
        "eqno": "105",
        "A": "0.83514",
        "B": "0.27544",
        "C": "497",
        "D": "0.27525",
        "Tmin": "150",
        "Tmax": "497"
    },
    "VaporPressure": {
        "eqno": "101",
        "A": "67.83965",
        "B": "-5584.772",
        "C": "-6.90156",
        "D": "5.177794E-06",
        "E": "2",
        "Tmin": "150",
        "Tmax": "497"
    },
    "HeatOfVaporization": {
        "eqno": "106",
        "A": "4.281E+07",
        "B": "0.34436",
        "C": "0.050812",
        "D": "-0.029168",
        "E": "0.014527",
        "Tmin": "150",
        "Tmax": "497"
    },
    "SolidHeatCapacityCp": {
        "eqno": "1",
        "A": "158590",
        "Tmin": "0",
        "Tmax": "497"
    },
    "LiquidHeatCapacityCp": {
        "eqno": "16",
        "A": "156890",
        "B": "481.87",
        "C": "3.1798",
        "D": "0.023292",
        "E": "-0.000015219",
        "Tmin": "298.15",
        "Tmax": "370"
    },
    "IdealGasHeatCapacityCp": {
        "eqno": "16",
        "A": "84480",
        "B": "-573.48",
        "C": "12.645",
        "D": "0.00036001",
        "E": "-1.6026E-07",
        "Tmin": "150",
        "Tmax": "1200"
    },
    "SecondVirialCoefficient": {
        "eqno": "104",
        "A": "0.20282",
        "B": "-209.23",
        "C": "-25.747",
        "D": "-401.68",
        "E": "-2768.2",
        "Tmin": "248.5",
        "Tmax": "1500"
    },
    "LiquidViscosity": {
        "eqno": "101",
        "A": "-6.5049",
        "B": "776.05",
        "C": "-0.79051",
        "D": "0.0000029469",
        "E": "2",
        "Tmin": "150",
        "Tmax": "450"
    },
    "VaporViscosity": {
        "eqno": "102",
        "A": "2.7344E-07",
        "B": "0.65828",
        "C": "203.42",
        "D": "-5560.1",
        "Tmin": "150",
        "Tmax": "1000"
    },
    "LiquidThermalConductivity": {
        "eqno": "16",
        "A": "-0.1664",
        "B": "6.1773",
        "C": "-1.0308",
        "D": "-0.0004394",
        "E": "-9.9213E-07",
        "Tmin": "150",
        "Tmax": "390"
    },
    "VaporThermalConductivity": {
        "eqno": "102",
        "A": "0.00016088",
        "B": "0.97231",
        "C": "471.48",
        "D": "30281",
        "Tmin": "180",
        "Tmax": "1000"
    },
    "SurfaceTension": {
        "eqno": "16",
        "A": "-0.010965",
        "B": "36.367",
        "C": "-3.3144",
        "D": "0.00071793",
        "E": "-0.0000066621",
        "Tmin": "150",
        "Tmax": "497"
    },
    "RPPHeatCapacityCp": {
        "eqno": "4",
        "A": "9865.2",
        "B": "481.23",
        "C": "-0.22823",
        "D": "0.000035281",
        "Tmin": "150",
        "Tmax": "1200"
    },
    "AntoineVaporPressure": {
        "eqno": "10",
        "A": "21.621",
        "B": "3058",
        "C": "-30.223",
        "Tmin": "150",
        "Tmax": "497"
    },
    "LiquidViscosityRPS": {
        "eqno": "12",
        "A": "-3.2832",
        "B": "-0.016308",
        "Tmin": "150",
        "Tmax": "331.7"
    },
    "COSTALDVolume": "0.330209",
    "DiameterLJ": "6.144609E-10",
    "EnergyLJ": "299.032",
    "RacketParameter": "0.272",
    "FullerVolume": "113.33",
    "Parachor": "0.0437951",
    "SpecificGravity": "0.738166",
    "Charge": "0",
    "CostaldAcentricFactor": "0.307786",
    "WilsonVolume": "0.121242",
    "UniquacR": "4.0685",
    "UniquacQ": "3.552",
    "ChaoSeaderAcentricFactor": "0.307786",
    "ChaoSeaderSolubilityParameter": "15100",
    "ChaoSeaderLiquidVolume": "0.121242",
    "UnifacVLE": {
        "group": "1"
    },
    "UnifacLLE": {
        "group": "1"
    },
    "Asog": {
        "group": "1"
    },
    "Umr": {
        "group": "1"
    },
    "ModifiedUnifac": {
        "group": "1"
    },
    "CAS": "625-44-5",
    "Smiles": "COCC(C)C"
}