{
    "LibraryIndex": "1312",
    "CompoundID": "Methyl acetate",
    "StructureFormula": "CH3COOCH3",
    "Family": "56",
    "CriticalTemperature": "506.8",
    "CriticalPressure": "4690000",
    "CriticalVolume": "0.228",
    "CriticalCompressibility": "0.254",
    "NormalBoilingPointTemperature": "330.09",
    "NormalMeltingPointTemperature": "175.15",
    "TriplePointTemperature": "175.15",
    "TriplePointPressure": "1.01703",
    "MolecularWeight": "74.07854",
    "LiquidVolumeAtNormalBoilingPoint": "0.07989",
    "AcentricityFactor": "0.323",
    "RadiusOfGyration": "2.996E-10",
    "SolubilityParameter": "19350",
    "DipoleMoment": "5.6E-30",
    "VanDerWaalsVolume": "0.04254",
    "VanDerWaalsArea": "6.44E+08",
    "HeatOfFormation": "-4.119E+08",
    "GibbsEnergyOfFormation": "-3.242E+08",
    "AbsEntropy": "319800",
    "HeatOfFusionAtMeltingPoint": "7970000",
    "MatthiasCopemanC1": "0.96569",
    "HeatOfCombustion": "-1.461E+09",
    "SolidDensity": {
        "eqno": "2",
        "A": "18.35",
        "B": "-0.011504",
        "Tmin": "70.06",
        "Tmax": "175.15"
    },
    "LiquidDensity": {
        "eqno": "105",
        "A": "0.98331",
        "B": "0.2428",
        "C": "506.86",
        "D": "0.2549",
        "Tmin": "175.15",
        "Tmax": "506.85"
    },
    "VaporPressure": {
        "eqno": "101",
        "A": "83.01817",
        "B": "-6288.581",
        "C": "-9.185862",
        "D": "7.595367E-06",
        "E": "2",
        "Tmin": "175.15",
        "Tmax": "506.85"
    },
    "HeatOfVaporization": {
        "eqno": "106",
        "A": "4.9929E+07",
        "B": "0.79197",
        "C": "-0.73136",
        "D": "0.37429",
        "E": "-0.019974",
        "Tmin": "175.15",
        "Tmax": "506.85"
    },
    "SolidHeatCapacityCp": {
        "eqno": "1",
        "A": "104870",
        "Tmin": "298",
        "Tmax": "0"
    },
    "LiquidHeatCapacityCp": {
        "eqno": "16",
        "A": "6314.4",
        "B": "680.3",
        "C": "4.1767",
        "D": "0.026148",
        "E": "-0.000027341",
        "Tmin": "207.38",
        "Tmax": "373.4"
    },
    "IdealGasHeatCapacityCp": {
        "eqno": "16",
        "A": "62235",
        "B": "-685.05",
        "C": "12.348",
        "D": "0.00012363",
        "E": "-8.5641E-08",
        "Tmin": "220",
        "Tmax": "1500"
    },
    "SecondVirialCoefficient": {
        "eqno": "104",
        "A": "0.12428",
        "B": "-150.24",
        "C": "-26.001",
        "D": "-830.67",
        "E": "-2742.3",
        "Tmin": "253.4",
        "Tmax": "1773.8"
    },
    "LiquidViscosity": {
        "eqno": "101",
        "A": "11.12",
        "B": "-100.13",
        "C": "-3.2745",
        "D": "-5.3051E-07",
        "E": "2",
        "Tmin": "250",
        "Tmax": "473"
    },
    "VaporViscosity": {
        "eqno": "102",
        "A": "0.0000013226",
        "B": "0.48849",
        "C": "504.21",
        "D": "4.2341",
        "Tmin": "250",
        "Tmax": "800"
    },
    "LiquidThermalConductivity": {
        "eqno": "16",
        "A": "-0.28416",
        "B": "27.186",
        "C": "-0.94457",
        "D": "0.00083974",
        "E": "-0.0000024412",
        "Tmin": "175.15",
        "Tmax": "386.15"
    },
    "VaporThermalConductivity": {
        "eqno": "102",
        "A": "-23257",
        "B": "-0.1738",
        "C": "1.0287E+07",
        "D": "-6.9243E+10",
        "Tmin": "175.15",
        "Tmax": "1000"
    },
    "SurfaceTension": {
        "eqno": "16",
        "A": "-0.053249",
        "B": "2.5722",
        "C": "-2.2027",
        "D": "-0.00085349",
        "E": "-0.0000011835",
        "Tmin": "175.15",
        "Tmax": "506.55"
    },
    "RPPHeatCapacityCp": {
        "eqno": "100",
        "A": "35270",
        "B": "119.63",
        "C": "0.27754",
        "D": "-0.0004099",
        "E": "1.6055E-07",
        "Tmin": "220",
        "Tmax": "1000"
    },
    "RelativeStaticPermittivity": {
        "eqno": "120",
        "A": "-5.348193",
        "B": "-3350",
        "C": "-20.1",
        "Tmin": "279.15",
        "Tmax": "449.15"
    },
    "AntoineVaporPressure": {
        "eqno": "10",
        "A": "21.435",
        "B": "2829.7",
        "C": "-44.587",
        "Tmin": "305.73",
        "Tmax": "454.22"
    },
    "LiquidViscosityRPS": {
        "eqno": "13",
        "A": "-3.8922",
        "B": "-0.016855",
        "C": "0.000011239",
        "Tmin": "250",
        "Tmax": "425"
    },
    "COSTALDVolume": "0.22619",
    "DiameterLJ": "5.04E-10",
    "EnergyLJ": "418",
    "FullerVolume": "73.78",
    "MatthiasCopemanC2": "0",
    "Parachor": "0.0318",
    "SpecificGravity": "0.939333",
    "Charge": "0",
    "CostaldAcentricFactor": "0.32049",
    "WilsonVolume": "0.0798903",
    "UniquacR": "2.8",
    "UniquacQ": "2.58",
    "MatthiasCopemanC3": "0",
    "ChaoSeaderAcentricFactor": "0.326",
    "ChaoSeaderSolubilityParameter": "19435.1",
    "ChaoSeaderLiquidVolume": "0.0798903",
    "UnifacVLE": {
        "group": "1"
    },
    "UnifacLLE": {
        "group": "1"
    },
    "Asog": {
        "group": "1"
    },
    "Umr": {
        "group": "1"
    },
    "ModifiedUnifac": {
        "group": "1"
    },
    "CAS": "79-20-9",
    "Smiles": "CC(=O)OC"
}