{
    "LibraryIndex": "105",
    "CompoundID": "Methylcyclopentane",
    "StructureFormula": "(C5H9)CH3",
    "Family": "6",
    "CriticalTemperature": "532.79",
    "CriticalPressure": "3784000",
    "CriticalVolume": "0.319",
    "CriticalCompressibility": "0.272",
    "NormalBoilingPointTemperature": "344.98",
    "NormalMeltingPointTemperature": "130.73",
    "TriplePointTemperature": "130.73",
    "TriplePointPressure": "0.000224525",
    "MolecularWeight": "84.15948",
    "LiquidVolumeAtNormalBoilingPoint": "0.11313",
    "AcentricityFactor": "0.227",
    "RadiusOfGyration": "3.299E-10",
    "SolubilityParameter": "16100",
    "DipoleMoment": "0",
    "VanDerWaalsVolume": "0.06017",
    "VanDerWaalsArea": "7.52E+08",
    "HeatOfFormation": "-1.062E+08",
    "GibbsEnergyOfFormation": "3.63E+07",
    "AbsEntropy": "339900",
    "HeatOfFusionAtMeltingPoint": "6929000",
    "MatthiasCopemanC1": "0.89391",
    "HeatOfCombustion": "-3.6741E+09",
    "SolidDensity": {
        "eqno": "2",
        "A": "13.305",
        "B": "-0.011236",
        "Tmin": "52.29",
        "Tmax": "130.73"
    },
    "LiquidDensity": {
        "eqno": "105",
        "A": "0.63455",
        "B": "0.23477",
        "C": "532.79",
        "D": "0.24394",
        "Tmin": "130.73",
        "Tmax": "532.7"
    },
    "VaporPressure": {
        "eqno": "101",
        "A": "63.18203",
        "B": "-5470.368",
        "C": "-6.215132",
        "D": "4.384737E-06",
        "E": "2",
        "Tmin": "130.73",
        "Tmax": "532.7"
    },
    "HeatOfVaporization": {
        "eqno": "106",
        "A": "4.986429E+07",
        "B": "0.75425",
        "C": "-0.186227",
        "D": "-0.50621",
        "E": "0.35999",
        "Tmin": "130.72",
        "Tmax": "532.7"
    },
    "SolidHeatCapacityCp": {
        "eqno": "100",
        "A": "-21181",
        "B": "1799.3",
        "C": "-12.463",
        "D": "0.018536",
        "E": "0.00015326",
        "Tmin": "20.92",
        "Tmax": "130.72"
    },
    "LiquidHeatCapacityCp": {
        "eqno": "16",
        "A": "102830",
        "B": "317.53",
        "C": "4.999",
        "D": "0.022368",
        "E": "-0.000020298",
        "Tmin": "126.58",
        "Tmax": "366.48"
    },
    "IdealGasHeatCapacityCp": {
        "eqno": "16",
        "A": "55624",
        "B": "-676.34",
        "C": "13.207",
        "D": "-0.0001363",
        "E": "2.6321E-08",
        "Tmin": "200",
        "Tmax": "1500"
    },
    "SecondVirialCoefficient": {
        "eqno": "104",
        "A": "0.12419",
        "B": "-105.76",
        "C": "-38.365",
        "D": "4383.1",
        "E": "-10749",
        "Tmin": "250.72",
        "Tmax": "1500"
    },
    "LiquidViscosity": {
        "eqno": "101",
        "A": "-9.2288",
        "B": "846.65",
        "C": "-0.18612",
        "D": "-0.0000022383",
        "E": "2",
        "Tmin": "248.15",
        "Tmax": "426.232"
    },
    "VaporViscosity": {
        "eqno": "102",
        "A": "0.0000009078",
        "B": "0.495",
        "C": "355.78",
        "D": "10.622",
        "Tmin": "130.73",
        "Tmax": "1000"
    },
    "LiquidThermalConductivity": {
        "eqno": "16",
        "A": "-0.040815",
        "B": "4.4808",
        "C": "-1.5434",
        "D": "-0.00050494",
        "E": "-0.0000017671",
        "Tmin": "130.73",
        "Tmax": "344.95"
    },
    "VaporThermalConductivity": {
        "eqno": "102",
        "A": "0.0076653",
        "B": "0.48521",
        "C": "479.72",
        "D": "658190",
        "Tmin": "130.73",
        "Tmax": "1000"
    },
    "SurfaceTension": {
        "eqno": "16",
        "A": "-0.0093168",
        "B": "26.403",
        "C": "-3.0884",
        "D": "0.00036246",
        "E": "-0.0000065372",
        "Tmin": "130.73",
        "Tmax": "532.7"
    },
    "RPPHeatCapacityCp": {
        "eqno": "100",
        "A": "44724",
        "B": "-68.661",
        "C": "1.4378",
        "D": "-0.0017998",
        "E": "6.8702E-07",
        "Tmin": "50",
        "Tmax": "1000"
    },
    "AntoineVaporPressure": {
        "eqno": "10",
        "A": "20.957",
        "B": "2887.5",
        "C": "-38.834",
        "Tmin": "319.7",
        "Tmax": "477.59"
    },
    "LiquidViscosityRPS": {
        "eqno": "13",
        "A": "-1.3777",
        "B": "-0.03038",
        "C": "0.00003135",
        "Tmin": "248.15",
        "Tmax": "353.15"
    },
    "COSTALDVolume": "0.31812",
    "DiameterLJ": "6.081712E-10",
    "EnergyLJ": "320.5659",
    "FullerVolume": "123.12",
    "MatthiasCopemanC2": "-0.53959",
    "Parachor": "0.0432",
    "SpecificGravity": "0.752065",
    "Charge": "0",
    "CostaldAcentricFactor": "0.23217",
    "WilsonVolume": "0.113042",
    "UniquacR": "3.97",
    "UniquacQ": "3.01",
    "ApiSrkS2": "-0.001461",
    "MatthiasCopemanC3": "1.1464",
    "ChaoSeaderAcentricFactor": "0.2346",
    "ChaoSeaderSolubilityParameter": "16057.17",
    "ChaoSeaderLiquidVolume": "0.1131",
    "UnifacVLE": {
        "group": "1"
    },
    "UnifacLLE": {
        "group": "1"
    },
    "Asog": {
        "group": "1"
    },
    "GCmethod": {
        "group": "1"
    },
    "Umr": {
        "group": "1"
    },
    "ModifiedUnifac": {
        "group": "1"
    },
    "CAS": "96-37-7",
    "Smiles": "C1(C)CCCC1"
}