{
    "LibraryIndex": "6862",
    "CompoundID": "Methylethanolamine",
    "StructureFormula": "CH3NHCH2CH2OH",
    "Family": "68",
    "CriticalTemperature": "630",
    "CriticalPressure": "5300000",
    "CriticalVolume": "0.25901",
    "CriticalCompressibility": "0.262",
    "NormalBoilingPointTemperature": "432.388",
    "NormalMeltingPointTemperature": "268.65",
    "TriplePointTemperature": "268.65",
    "TriplePointPressure": "11.1091",
    "MolecularWeight": "75.10966",
    "LiquidVolumeAtNormalBoilingPoint": "0.082206",
    "AcentricityFactor": "0.604",
    "RadiusOfGyration": "3.035E-10",
    "SolubilityParameter": "25930",
    "DipoleMoment": "7.2E-30",
    "VanDerWaalsVolume": "0.05025",
    "VanDerWaalsArea": "7.27E+08",
    "HeatOfFormation": "-1.98E+08",
    "GibbsEnergyOfFormation": "-6.11E+07",
    "AbsEntropy": "344000",
    "HeatOfFusionAtMeltingPoint": "8760000",
    "MatthiasCopemanC1": "1.36403",
    "HeatOfCombustion": "-2.01E+09",
    "SolidDensity": {
        "eqno": "100",
        "A": "16.367",
        "B": "-0.0076153",
        "C": "0",
        "D": "0",
        "E": "0",
        "Tmin": "107.46",
        "Tmax": "268.65"
    },
    "LiquidDensity": {
        "eqno": "105",
        "A": "0.982868",
        "B": "0.255663",
        "C": "630",
        "D": "0.231239",
        "Tmin": "268.65",
        "Tmax": "610.98"
    },
    "VaporPressure": {
        "eqno": "101",
        "A": "101.1268",
        "B": "-9896.461",
        "C": "-11.12231",
        "D": "4.333878E-06",
        "E": "2",
        "Tmin": "268.65",
        "Tmax": "630"
    },
    "HeatOfVaporization": {
        "eqno": "106",
        "A": "8.3715E+07",
        "B": "1.1304",
        "C": "-1.7736",
        "D": "1.7333",
        "E": "-0.66961",
        "Tmin": "268.65",
        "Tmax": "610.98"
    },
    "SolidHeatCapacityCp": {
        "eqno": "102",
        "A": "1490",
        "B": "0.79267",
        "C": "0",
        "D": "0",
        "Tmin": "50",
        "Tmax": "268.65"
    },
    "LiquidHeatCapacityCp": {
        "eqno": "4",
        "A": "65879.9",
        "B": "415.0007",
        "C": "0.00004583",
        "D": "2.109E-09",
        "E": "-0.0000030816",
        "Tmin": "250",
        "Tmax": "465"
    },
    "IdealGasHeatCapacityCp": {
        "eqno": "16",
        "A": "50351",
        "B": "-464.92",
        "C": "12.353",
        "D": "0.00032078",
        "E": "-1.1521E-07",
        "Tmin": "273",
        "Tmax": "1200"
    },
    "SecondVirialCoefficient": {
        "eqno": "104",
        "A": "0.16573",
        "B": "-171.59",
        "C": "-61.863",
        "D": "-10326",
        "E": "-8446.2",
        "Tmin": "315",
        "Tmax": "1500"
    },
    "LiquidViscosity": {
        "eqno": "101",
        "A": "-8.8113",
        "B": "2947",
        "C": "-0.99316",
        "D": "4.0603E-07",
        "E": "2",
        "Tmin": "268.65",
        "Tmax": "530"
    },
    "VaporViscosity": {
        "eqno": "102",
        "A": "2.1919E-07",
        "B": "0.70935",
        "C": "211",
        "D": "-8775.4",
        "Tmin": "268.65",
        "Tmax": "1000"
    },
    "LiquidThermalConductivity": {
        "eqno": "16",
        "A": "-0.011378",
        "B": "-96.849",
        "C": "-0.47605",
        "D": "-0.0029428",
        "E": "4.7129E-07",
        "Tmin": "268.65",
        "Tmax": "431.15"
    },
    "VaporThermalConductivity": {
        "eqno": "102",
        "A": "0.00021463",
        "B": "0.94857",
        "C": "622.07",
        "D": "15372",
        "Tmin": "268.65",
        "Tmax": "1000"
    },
    "SurfaceTension": {
        "eqno": "16",
        "A": "-0.011359",
        "B": "194.04",
        "C": "-4.2168",
        "D": "0.0039447",
        "E": "-0.0000077857",
        "Tmin": "268.65",
        "Tmax": "610.98"
    },
    "RPPHeatCapacityCp": {
        "eqno": "4",
        "A": "-3617.1",
        "B": "432.68",
        "C": "-0.26594",
        "D": "0.000065752",
        "Tmin": "273",
        "Tmax": "1200"
    },
    "AntoineVaporPressure": {
        "eqno": "10",
        "A": "22.175",
        "B": "3679.7",
        "C": "-85.876",
        "Tmin": "382.76",
        "Tmax": "557.73"
    },
    "LiquidViscosityRPS": {
        "eqno": "12",
        "A": "3.6732",
        "B": "-0.027534",
        "Tmin": "268.65",
        "Tmax": "431.15"
    },
    "COSTALDVolume": "0.267184",
    "DiameterLJ": "5.934566E-10",
    "EnergyLJ": "331.2366",
    "RacketParameter": "0.262",
    "FullerVolume": "51.847",
    "MatthiasCopemanC2": "0",
    "Parachor": "0.0337966",
    "SpecificGravity": "0.94",
    "Charge": "0",
    "CostaldAcentricFactor": "0.604",
    "WilsonVolume": "0.082206",
    "UniquacR": "3.7825",
    "UniquacQ": "3.524",
    "MatthiasCopemanC3": "0",
    "ChaoSeaderAcentricFactor": "0.604",
    "ChaoSeaderSolubilityParameter": "25930",
    "ChaoSeaderLiquidVolume": "0.082206",
    "UnifacVLE": {
        "group": "1"
    },
    "Asog": {
        "group": "1"
    },
    "Umr": {
        "group": "1"
    },
    "ModifiedUnifac": {
        "group": "1"
    },
    "CAS": "109-83-1",
    "Smiles": "CNCCO"
}