{
    "LibraryIndex": "1407",
    "CompoundID": "Methyl ethyl ether",
    "StructureFormula": "CH3CH2OCH3",
    "Family": "61",
    "CriticalTemperature": "437.8",
    "CriticalPressure": "4400000",
    "CriticalVolume": "0.221",
    "CriticalCompressibility": "0.267",
    "NormalBoilingPointTemperature": "280.5",
    "NormalMeltingPointTemperature": "160",
    "TriplePointTemperature": "160",
    "TriplePointPressure": "7.85121",
    "MolecularWeight": "60.09502",
    "LiquidVolumeAtNormalBoilingPoint": "0.08585",
    "AcentricityFactor": "0.236",
    "RadiusOfGyration": "2.594E-10",
    "SolubilityParameter": "15370",
    "DipoleMoment": "4.1E-30",
    "VanDerWaalsVolume": "0.04127",
    "VanDerWaalsArea": "6.19E+08",
    "HeatOfFormation": "-2.164E+08",
    "GibbsEnergyOfFormation": "-1.177E+08",
    "AbsEntropy": "308810",
    "HeatOfFusionAtMeltingPoint": "7980000",
    "MatthiasCopemanC1": "0.81612",
    "HeatOfCombustion": "-1.9314E+09",
    "SolidDensity": {
        "eqno": "2",
        "A": "16.4",
        "B": "-5.0307E-16",
        "C": "0",
        "D": "0",
        "E": "0",
        "Tmin": "0",
        "Tmax": "9.5"
    },
    "LiquidDensity": {
        "eqno": "105",
        "A": "1.1195",
        "B": "0.26367",
        "C": "437.86",
        "D": "0.25231",
        "Tmin": "160",
        "Tmax": "437.85"
    },
    "VaporPressure": {
        "eqno": "101",
        "A": "63.84",
        "B": "-4659.2",
        "C": "-6.4137",
        "D": "0.0000057727",
        "E": "2",
        "Tmin": "160",
        "Tmax": "437.85"
    },
    "HeatOfVaporization": {
        "eqno": "106",
        "A": "1.3679E+08",
        "B": "9.4948",
        "C": "-25.655",
        "D": "28.424",
        "E": "-11.603",
        "Tmin": "160",
        "Tmax": "423.18"
    },
    "SolidHeatCapacityCp": {
        "eqno": "1",
        "A": "106570",
        "Tmin": "0",
        "Tmax": "437.8"
    },
    "LiquidHeatCapacityCp": {
        "eqno": "16",
        "A": "109050",
        "B": "-31.645",
        "C": "7.7783",
        "D": "0.0084684",
        "E": "0.0000041202",
        "Tmin": "160",
        "Tmax": "291.87"
    },
    "IdealGasHeatCapacityCp": {
        "eqno": "16",
        "A": "60571",
        "B": "-557.18",
        "C": "12.079",
        "D": "0.00048084",
        "E": "-1.7581E-07",
        "Tmin": "150",
        "Tmax": "1500"
    },
    "SecondVirialCoefficient": {
        "eqno": "104",
        "A": "0.11781",
        "B": "-82.964",
        "C": "-11.583",
        "D": "116.91",
        "E": "-410.44",
        "Tmin": "218.9",
        "Tmax": "1751.2"
    },
    "LiquidViscosity": {
        "eqno": "101",
        "A": "-11.138",
        "B": "628.05",
        "C": "0.042345",
        "D": "-2.0281E-08",
        "E": "2",
        "Tmin": "160",
        "Tmax": "373.15"
    },
    "VaporViscosity": {
        "eqno": "102",
        "A": "2.9661E-07",
        "B": "0.6716",
        "C": "174.02",
        "D": "-2778.1",
        "Tmin": "160",
        "Tmax": "1000"
    },
    "LiquidThermalConductivity": {
        "eqno": "16",
        "A": "0.029003",
        "B": "34.124",
        "C": "-1.9356",
        "D": "0.0010295",
        "E": "-0.0000079939",
        "Tmin": "123.15",
        "Tmax": "393.15"
    },
    "VaporThermalConductivity": {
        "eqno": "102",
        "A": "0.00021058",
        "B": "0.94472",
        "C": "515.36",
        "D": "8108.3",
        "Tmin": "160",
        "Tmax": "1000"
    },
    "SurfaceTension": {
        "eqno": "16",
        "A": "-0.010165",
        "B": "66.837",
        "C": "-3.7084",
        "D": "0.0031429",
        "E": "-0.000012741",
        "Tmin": "160",
        "Tmax": "423.18"
    },
    "RPPHeatCapacityCp": {
        "eqno": "100",
        "A": "33324",
        "B": "178.7",
        "C": "0.14991",
        "D": "-0.00027712",
        "E": "1.1067E-07",
        "Tmin": "100",
        "Tmax": "1000"
    },
    "AntoineVaporPressure": {
        "eqno": "10",
        "A": "20.812",
        "B": "2153.4",
        "C": "-48.579",
        "Tmin": "265.35",
        "Tmax": "393.94"
    },
    "LiquidViscosityRPS": {
        "eqno": "12",
        "A": "-5.3262",
        "B": "-0.012074",
        "Tmin": "160",
        "Tmax": "300"
    },
    "COSTALDVolume": "0.218857",
    "DiameterLJ": "5.502528E-10",
    "EnergyLJ": "246.3936",
    "RacketParameter": "0.267",
    "FullerVolume": "72.28999",
    "MatthiasCopemanC2": "-0.44235",
    "Parachor": "0.0306623",
    "SpecificGravity": "0.705396",
    "Charge": "0",
    "CostaldAcentricFactor": "0.236",
    "WilsonVolume": "0.08585",
    "UniquacR": "2.7205",
    "UniquacQ": "2.476",
    "MatthiasCopemanC3": "3.534",
    "ChaoSeaderAcentricFactor": "0.236",
    "ChaoSeaderSolubilityParameter": "15370",
    "ChaoSeaderLiquidVolume": "0.08585",
    "UnifacVLE": {
        "group": "1"
    },
    "UnifacLLE": {
        "group": "1"
    },
    "Asog": {
        "group": "1"
    },
    "Umr": {
        "group": "1"
    },
    "ModifiedUnifac": {
        "group": "1"
    },
    "CAS": "540-67-0",
    "Smiles": "COCC"
}