{
    "LibraryIndex": "1775",
    "CompoundID": "Methacrylonitrile",
    "StructureFormula": "CH2C(CH3)CN",
    "Family": "38",
    "CriticalTemperature": "554",
    "CriticalPressure": "3880000",
    "CriticalVolume": "0.265",
    "CriticalCompressibility": "0.223",
    "NormalBoilingPointTemperature": "363.45",
    "NormalMeltingPointTemperature": "237.35",
    "TriplePointTemperature": "237.35",
    "TriplePointPressure": "268.868",
    "MolecularWeight": "67.0892",
    "LiquidVolumeAtNormalBoilingPoint": "0.0844058",
    "AcentricityFactor": "0.301271",
    "RadiusOfGyration": "3.172E-10",
    "SolubilityParameter": "19090",
    "DipoleMoment": "1.23E-29",
    "VanDerWaalsVolume": "0.04532",
    "VanDerWaalsArea": "6.78E+08",
    "HeatOfFormation": "9.803E+07",
    "GibbsEnergyOfFormation": "1.64E+08",
    "AbsEntropy": "223800",
    "HeatOfFusionAtMeltingPoint": "0",
    "MatthiasCopemanC1": "0.92207",
    "HeatOfCombustion": "-2.243E+09",
    "SolidDensity": {
        "eqno": "2",
        "A": "16.205",
        "B": "-0.0076417",
        "Tmin": "94.94",
        "Tmax": "237.35"
    },
    "LiquidDensity": {
        "eqno": "105",
        "A": "0.89537",
        "B": "0.23729",
        "C": "554",
        "D": "0.29629",
        "Tmin": "237.35",
        "Tmax": "537.33"
    },
    "VaporPressure": {
        "eqno": "101",
        "A": "56.07917",
        "B": "-5342.951",
        "C": "-5.152858",
        "D": "4.011012E-06",
        "E": "2",
        "Tmin": "228.65",
        "Tmax": "554"
    },
    "HeatOfVaporization": {
        "eqno": "106",
        "A": "4.4103E+07",
        "B": "0.56334",
        "C": "-0.51577",
        "D": "0.31852",
        "E": "-0.072403",
        "Tmin": "237.35",
        "Tmax": "537.33"
    },
    "SolidHeatCapacityCp": {
        "eqno": "100",
        "A": "5234",
        "B": "706.96",
        "C": "-1.4898",
        "D": "0.0041536",
        "E": "-0.000005155",
        "Tmin": "50",
        "Tmax": "237.35"
    },
    "LiquidHeatCapacityCp": {
        "eqno": "16",
        "A": "125060",
        "B": "169.88",
        "C": "6.1441",
        "D": "0.015707",
        "E": "-0.000014502",
        "Tmin": "298.15",
        "Tmax": "363.45"
    },
    "IdealGasHeatCapacityCp": {
        "eqno": "16",
        "A": "68640",
        "B": "-664.02",
        "C": "12.252",
        "D": "0.000039427",
        "E": "-4.9098E-08",
        "Tmin": "237.35",
        "Tmax": "1600.1"
    },
    "SecondVirialCoefficient": {
        "eqno": "104",
        "A": "0.19092",
        "B": "-216.75",
        "C": "-39.481",
        "D": "-32963",
        "E": "57710",
        "Tmin": "277",
        "Tmax": "1771"
    },
    "LiquidViscosity": {
        "eqno": "101",
        "A": "-14.973",
        "B": "1174.5",
        "C": "0.57272",
        "D": "-0.0000017357",
        "E": "2",
        "Tmin": "237.35",
        "Tmax": "400"
    },
    "VaporViscosity": {
        "eqno": "102",
        "A": "3.3003E-07",
        "B": "0.64938",
        "C": "329.57",
        "D": "-240",
        "Tmin": "237.35",
        "Tmax": "1000"
    },
    "LiquidThermalConductivity": {
        "eqno": "16",
        "A": "0.095479",
        "B": "1984.5",
        "C": "-23.334",
        "D": "0.076497",
        "E": "-0.000098215",
        "Tmin": "237.35",
        "Tmax": "513.15"
    },
    "VaporThermalConductivity": {
        "eqno": "102",
        "A": "0.0010085",
        "B": "1.2282",
        "C": "49915",
        "D": "0.89214",
        "Tmin": "237.35",
        "Tmax": "1000"
    },
    "SurfaceTension": {
        "eqno": "16",
        "A": "-0.0074463",
        "B": "179.83",
        "C": "-4.4863",
        "D": "0.0047455",
        "E": "-0.000011145",
        "Tmin": "237.35",
        "Tmax": "537.33"
    },
    "RPPHeatCapacityCp": {
        "eqno": "4",
        "A": "23959",
        "B": "264.31",
        "C": "-0.1392",
        "D": "0.000026399",
        "Tmin": "237.35",
        "Tmax": "1600.1"
    },
    "AntoineVaporPressure": {
        "eqno": "10",
        "A": "21.733",
        "B": "3597.2",
        "C": "-11.461",
        "Tmin": "337.34",
        "Tmax": "487.34"
    },
    "LiquidViscosityRPS": {
        "eqno": "13",
        "A": "-0.5428",
        "B": "-0.036813",
        "C": "0.000040428",
        "Tmin": "237.35",
        "Tmax": "363.45"
    },
    "COSTALDVolume": "0.240561",
    "DiameterLJ": "7.255952E-10",
    "EnergyLJ": "163.0499",
    "FullerVolume": "79.69",
    "MatthiasCopemanC2": "0",
    "Parachor": "0.0333",
    "SpecificGravity": "0.804731",
    "Charge": "0",
    "CostaldAcentricFactor": "0.301271",
    "WilsonVolume": "0.0844058",
    "UniquacR": "2.987475",
    "UniquacQ": "2.712",
    "MatthiasCopemanC3": "0",
    "ChaoSeaderAcentricFactor": "0.301271",
    "ChaoSeaderSolubilityParameter": "19094",
    "ChaoSeaderLiquidVolume": "0.0844058",
    "CAS": "126-98-7",
    "Smiles": "C=C(C)C#N"
}