{
    "LibraryIndex": "1408",
    "CompoundID": "Methyl n-propyl ether",
    "StructureFormula": "CH3OCH2CH2CH3",
    "Family": "61",
    "CriticalTemperature": "472",
    "CriticalPressure": "3801000",
    "CriticalVolume": "0.274",
    "CriticalCompressibility": "0.265",
    "NormalBoilingPointTemperature": "312.29",
    "NormalMeltingPointTemperature": "123.15",
    "TriplePointTemperature": "133.97",
    "TriplePointPressure": "0.00289599",
    "MolecularWeight": "74.1216",
    "LiquidVolumeAtNormalBoilingPoint": "0.1032",
    "AcentricityFactor": "0.276999",
    "RadiusOfGyration": "3.12326E-10",
    "SolubilityParameter": "15730",
    "DipoleMoment": "4.14E-30",
    "VanDerWaalsVolume": "0.0515",
    "VanDerWaalsArea": "7.54E+08",
    "HeatOfFormation": "-2.379E+08",
    "GibbsEnergyOfFormation": "-1.108E+08",
    "AbsEntropy": "352000",
    "HeatOfFusionAtMeltingPoint": "7670000",
    "MatthiasCopemanC1": "0.89511",
    "HeatOfCombustion": "-2.517E+09",
    "SolidDensity": {
        "eqno": "100",
        "A": "15.416",
        "B": "-0.014383",
        "C": "0",
        "D": "0",
        "E": "0",
        "Tmin": "53.59",
        "Tmax": "133.97"
    },
    "LiquidDensity": {
        "eqno": "105",
        "A": "1.1427",
        "B": "0.28927",
        "C": "472",
        "D": "0.3185",
        "Tmin": "133.97",
        "Tmax": "458.24"
    },
    "VaporPressure": {
        "eqno": "101",
        "A": "59.81269",
        "B": "-4968.626",
        "C": "-5.703041",
        "D": "3.962175E-06",
        "E": "2",
        "Tmin": "133.97",
        "Tmax": "476.25"
    },
    "HeatOfVaporization": {
        "eqno": "106",
        "A": "4.425282E+07",
        "B": "0.586164",
        "C": "-0.378014",
        "D": "0.582618",
        "E": "-0.440041",
        "Tmin": "133.97",
        "Tmax": "458.24"
    },
    "SolidHeatCapacityCp": {
        "eqno": "100",
        "A": "-9510.5",
        "B": "1023.7",
        "C": "0.15873",
        "D": "-0.038206",
        "E": "0.00015489",
        "Tmin": "15.99",
        "Tmax": "127.29"
    },
    "LiquidHeatCapacityCp": {
        "eqno": "16",
        "A": "136920",
        "B": "43.97",
        "C": "5.0864",
        "D": "0.024992",
        "E": "-0.000027384",
        "Tmin": "133.97",
        "Tmax": "312.2"
    },
    "IdealGasHeatCapacityCp": {
        "eqno": "16",
        "A": "93668",
        "B": "-926.82",
        "C": "13.189",
        "D": "-0.0004818",
        "E": "0.000000144",
        "Tmin": "133.97",
        "Tmax": "1200"
    },
    "SecondVirialCoefficient": {
        "eqno": "104",
        "A": "0.17308",
        "B": "-175.69",
        "C": "-17.924",
        "D": "-525.83",
        "E": "-815.37",
        "Tmin": "238.12",
        "Tmax": "1500"
    },
    "LiquidViscosity": {
        "eqno": "101",
        "A": "-11.301",
        "B": "802.09",
        "C": "0.054938",
        "D": "-4.1844E-07",
        "E": "2",
        "Tmin": "133.97",
        "Tmax": "312.2"
    },
    "VaporViscosity": {
        "eqno": "102",
        "A": "1.0896E-07",
        "B": "0.78578",
        "C": "98.829",
        "D": "-6562.3",
        "Tmin": "133.97",
        "Tmax": "1000"
    },
    "LiquidThermalConductivity": {
        "eqno": "16",
        "A": "-0.0079788",
        "B": "3.9001",
        "C": "-1.4224",
        "D": "-0.0010693",
        "E": "-0.0000025315",
        "Tmin": "123.15",
        "Tmax": "423.15"
    },
    "VaporThermalConductivity": {
        "eqno": "102",
        "A": "0.010718",
        "B": "0.485",
        "C": "2083.9",
        "D": "283110",
        "Tmin": "133.97",
        "Tmax": "1000"
    },
    "SurfaceTension": {
        "eqno": "16",
        "A": "-0.012651",
        "B": "20.99",
        "C": "-2.9043",
        "D": "-0.00049586",
        "E": "-0.0000059519",
        "Tmin": "133.97",
        "Tmax": "458.24"
    },
    "RPPHeatCapacityCp": {
        "eqno": "4",
        "A": "29023",
        "B": "312.2",
        "C": "-0.087621",
        "D": "-0.0000082831",
        "Tmin": "133.97",
        "Tmax": "1200"
    },
    "AntoineVaporPressure": {
        "eqno": "10",
        "A": "20.939",
        "B": "2550.9",
        "C": "-41.081",
        "Tmin": "284.01",
        "Tmax": "422.21"
    },
    "LiquidViscosityRPS": {
        "eqno": "12",
        "A": "-3.3078",
        "B": "-0.017264",
        "Tmin": "133.97",
        "Tmax": "312.2"
    },
    "COSTALDVolume": "0.273974",
    "DiameterLJ": "5.964859E-10",
    "EnergyLJ": "258.5475",
    "RacketParameter": "0.265",
    "FullerVolume": "92.81",
    "MatthiasCopemanC2": "0.72462",
    "Parachor": "0.0372251",
    "SpecificGravity": "0.733812",
    "Charge": "0",
    "CostaldAcentricFactor": "0.276999",
    "WilsonVolume": "0.1032",
    "UniquacR": "3.3949",
    "UniquacQ": "3.016",
    "MatthiasCopemanC3": "-1.6721",
    "ChaoSeaderAcentricFactor": "0.276999",
    "ChaoSeaderSolubilityParameter": "15730",
    "ChaoSeaderLiquidVolume": "0.1032",
    "UnifacVLE": {
        "group": "1"
    },
    "UnifacLLE": {
        "group": "1"
    },
    "Asog": {
        "group": "1"
    },
    "Umr": {
        "group": "1"
    },
    "ModifiedUnifac": {
        "group": "1"
    },
    "CAS": "557-17-5",
    "Smiles": "COCCC"
}