{
    "LibraryIndex": "1351",
    "CompoundID": "Methyl methacrylate",
    "StructureFormula": "CH2C(CH3)COOCH3",
    "Family": "59",
    "CriticalTemperature": "563.15",
    "CriticalPressure": "3670000",
    "CriticalVolume": "0.324",
    "CriticalCompressibility": "0.253",
    "NormalBoilingPointTemperature": "374.15",
    "NormalMeltingPointTemperature": "225.15",
    "TriplePointTemperature": "225.6",
    "TriplePointPressure": "19.0855",
    "MolecularWeight": "100.1158",
    "LiquidVolumeAtNormalBoilingPoint": "0.106736",
    "AcentricityFactor": "0.280233",
    "RadiusOfGyration": "3.62E-10",
    "SolubilityParameter": "18530",
    "DipoleMoment": "6.57E-30",
    "VanDerWaalsVolume": "0.05949",
    "VanDerWaalsArea": "8.91E+08",
    "HeatOfFormation": "-3.6E+08",
    "GibbsEnergyOfFormation": "-2.54E+08",
    "AbsEntropy": "401000",
    "HeatOfFusionAtMeltingPoint": "1.44348E+07",
    "MatthiasCopemanC1": "1.27622",
    "HeatOfCombustion": "-2.54E+09",
    "SolidDensity": {
        "eqno": "2",
        "A": "12.912",
        "B": "-0.0063843",
        "C": "0",
        "D": "0",
        "E": "0",
        "Tmin": "89.98",
        "Tmax": "224.95"
    },
    "LiquidDensity": {
        "eqno": "105",
        "A": "0.91648",
        "B": "0.27205",
        "C": "563.15",
        "D": "0.3201",
        "Tmin": "224.95",
        "Tmax": "548.05"
    },
    "VaporPressure": {
        "eqno": "101",
        "A": "129.5007",
        "B": "-8907.818",
        "C": "-16.17497",
        "D": "0.000012098",
        "E": "2",
        "Tmin": "224.95",
        "Tmax": "566"
    },
    "HeatOfVaporization": {
        "eqno": "106",
        "A": "5.397285E+07",
        "B": "-0.0862845",
        "C": "1.857786",
        "D": "-2.127696",
        "E": "0.775243",
        "Tmin": "224.95",
        "Tmax": "548.05"
    },
    "SolidHeatCapacityCp": {
        "eqno": "100",
        "A": "-22371",
        "B": "1615.2",
        "C": "-7.3896",
        "D": "0.0056281",
        "E": "0.000054354",
        "Tmin": "20",
        "Tmax": "210"
    },
    "LiquidHeatCapacityCp": {
        "eqno": "16",
        "A": "45251",
        "B": "733.56",
        "C": "4.0201",
        "D": "0.024183",
        "E": "-0.000020347",
        "Tmin": "224.95",
        "Tmax": "373.45"
    },
    "IdealGasHeatCapacityCp": {
        "eqno": "16",
        "A": "40862.92",
        "B": "-408.0793",
        "C": "12.53452",
        "D": "0.000265188",
        "E": "-1.105927E-07",
        "Tmin": "273",
        "Tmax": "1500"
    },
    "SecondVirialCoefficient": {
        "eqno": "104",
        "A": "0.20274",
        "B": "-240.84",
        "C": "-40.536",
        "D": "6484.6",
        "E": "-27053",
        "Tmin": "282",
        "Tmax": "1800"
    },
    "LiquidViscosity": {
        "eqno": "101",
        "A": "-8.2342",
        "B": "780.75",
        "C": "-0.30393",
        "D": "-0.0000019127",
        "E": "2",
        "Tmin": "260",
        "Tmax": "463"
    },
    "VaporViscosity": {
        "eqno": "102",
        "A": "4.0508E-07",
        "B": "0.64362",
        "C": "435.99",
        "D": "-25064",
        "Tmin": "224.95",
        "Tmax": "1000"
    },
    "LiquidThermalConductivity": {
        "eqno": "16",
        "A": "0.093744",
        "B": "-51.297",
        "C": "-0.18289",
        "D": "-0.0078351",
        "E": "-0.0000030405",
        "Tmin": "290.15",
        "Tmax": "363.45"
    },
    "VaporThermalConductivity": {
        "eqno": "102",
        "A": "0.0023506",
        "B": "0.61168",
        "C": "848.43",
        "D": "252520",
        "Tmin": "225.6",
        "Tmax": "1000"
    },
    "SurfaceTension": {
        "eqno": "16",
        "A": "-0.035425",
        "B": "-58.877",
        "C": "-1.5763",
        "D": "-0.0037063",
        "E": "0.0000012939",
        "Tmin": "224.95",
        "Tmax": "548.05"
    },
    "RPPHeatCapacityCp": {
        "eqno": "4",
        "A": "-10357",
        "B": "514.6",
        "C": "-0.32166",
        "D": "0.000073928",
        "Tmin": "273",
        "Tmax": "1500"
    },
    "AntoineVaporPressure": {
        "eqno": "10",
        "A": "20.565",
        "B": "2703.4",
        "C": "-74.211",
        "Tmin": "340",
        "Tmax": "494.2"
    },
    "LiquidViscosityRPS": {
        "eqno": "12",
        "A": "-4.6879",
        "B": "-0.0094364",
        "Tmin": "260",
        "Tmax": "400"
    },
    "COSTALDVolume": "0.31782",
    "DiameterLJ": "6.668304E-10",
    "EnergyLJ": "261.0785",
    "RacketParameter": "0.253",
    "FullerVolume": "110.2",
    "MatthiasCopemanC2": "0",
    "Parachor": "0.0432757",
    "SpecificGravity": "0.94966",
    "Charge": "0",
    "CostaldAcentricFactor": "0.280233",
    "WilsonVolume": "0.106736",
    "UniquacR": "3.9215",
    "UniquacQ": "3.564",
    "MatthiasCopemanC3": "0",
    "ChaoSeaderAcentricFactor": "0.280233",
    "ChaoSeaderSolubilityParameter": "18530",
    "ChaoSeaderLiquidVolume": "0.106736",
    "UnifacVLE": {
        "group": "1"
    },
    "UnifacLLE": {
        "group": "1"
    },
    "Asog": {
        "group": "1"
    },
    "Umr": {
        "group": "1"
    },
    "ModifiedUnifac": {
        "group": "1"
    },
    "CAS": "80-62-6",
    "Smiles": "C=C(C)C(=O)OC"
}