{
    "LibraryIndex": "1750",
    "CompoundID": "N-aminoethyl piperazine",
    "StructureFormula": "H2NC2H4(NCH2CH2NHCH2CH2)",
    "Family": "37",
    "CriticalTemperature": "708",
    "CriticalPressure": "3850000",
    "CriticalVolume": "0.475",
    "CriticalCompressibility": "0.266",
    "NormalBoilingPointTemperature": "495.15",
    "NormalMeltingPointTemperature": "254.15",
    "TriplePointTemperature": "254.15",
    "TriplePointPressure": "0.0694812",
    "MolecularWeight": "129.2034",
    "LiquidVolumeAtNormalBoilingPoint": "0.132257",
    "AcentricityFactor": "0.557243",
    "RadiusOfGyration": "4.225E-10",
    "SolubilityParameter": "21520",
    "VanDerWaalsVolume": "0.08433",
    "VanDerWaalsArea": "1.106E+09",
    "HeatOfFormation": "2.51E+07",
    "GibbsEnergyOfFormation": "2.79E+08",
    "AbsEntropy": "451000",
    "HeatOfFusionAtMeltingPoint": "0",
    "HeatOfCombustion": "-4.135E+09",
    "SolidDensity": {
        "eqno": "100",
        "A": "9.9891",
        "B": "-0.004913",
        "C": "0",
        "D": "0",
        "E": "0",
        "Tmin": "101.66",
        "Tmax": "254.15"
    },
    "LiquidDensity": {
        "eqno": "105",
        "A": "0.66681",
        "B": "0.27137",
        "C": "708",
        "D": "0.27214",
        "Tmin": "254.15",
        "Tmax": "708"
    },
    "VaporPressure": {
        "eqno": "101",
        "A": "127.7429",
        "B": "-12067.23",
        "C": "-15.04915",
        "D": "6.424073E-06",
        "E": "2",
        "Tmin": "254.15",
        "Tmax": "708"
    },
    "HeatOfVaporization": {
        "eqno": "106",
        "A": "9.785579E+07",
        "B": "0.814708",
        "C": "0.0237006",
        "D": "-0.690218",
        "E": "0.260899",
        "Tmin": "254.15",
        "Tmax": "708"
    },
    "SolidHeatCapacityCp": {
        "eqno": "102",
        "A": "1710",
        "B": "0.79267",
        "C": "0",
        "D": "0",
        "Tmin": "50",
        "Tmax": "254.15"
    },
    "LiquidHeatCapacityCp": {
        "eqno": "16",
        "A": "259220",
        "B": "331.04",
        "C": "3.608",
        "D": "0.023605",
        "E": "-0.000018248",
        "Tmin": "293.15",
        "Tmax": "524"
    },
    "IdealGasHeatCapacityCp": {
        "eqno": "16",
        "A": "70888",
        "B": "-450.73",
        "C": "13.066",
        "D": "0.00018285",
        "E": "-6.5268E-08",
        "Tmin": "273",
        "Tmax": "1500"
    },
    "SecondVirialCoefficient": {
        "eqno": "104",
        "A": "0.26459",
        "B": "-324.05",
        "C": "-122",
        "D": "-62238",
        "E": "41430",
        "Tmin": "354",
        "Tmax": "1500"
    },
    "LiquidViscosity": {
        "eqno": "101",
        "A": "-497.9054",
        "B": "22666.52",
        "C": "74.36022",
        "D": "-0.0000702789",
        "E": "2",
        "Tmin": "254.15",
        "Tmax": "566.4"
    },
    "VaporViscosity": {
        "eqno": "102",
        "A": "7.7705E-08",
        "B": "0.8233",
        "C": "132.06",
        "D": "-8963.7",
        "Tmin": "254.15",
        "Tmax": "1000"
    },
    "LiquidThermalConductivity": {
        "eqno": "16",
        "A": "-0.089882",
        "B": "-7.0061",
        "C": "-1.0711",
        "D": "-0.00065668",
        "E": "-0.0000005629",
        "Tmin": "254.15",
        "Tmax": "493.55"
    },
    "VaporThermalConductivity": {
        "eqno": "102",
        "A": "0.00012973",
        "B": "0.99814",
        "C": "630.8",
        "D": "21962",
        "Tmin": "254.15",
        "Tmax": "1000"
    },
    "SurfaceTension": {
        "eqno": "16",
        "A": "-0.017548",
        "B": "79.8",
        "C": "-3.1218",
        "D": "0.00097678",
        "E": "-0.0000034661",
        "Tmin": "254.15",
        "Tmax": "708"
    },
    "RPPHeatCapacityCp": {
        "eqno": "4",
        "A": "-21376",
        "B": "821.45",
        "C": "-0.51136",
        "D": "0.00012139",
        "Tmin": "273",
        "Tmax": "1500"
    },
    "AntoineVaporPressure": {
        "eqno": "10",
        "A": "22.46",
        "B": "4725.8",
        "C": "-61.815",
        "Tmin": "425.35",
        "Tmax": "636.34"
    },
    "LiquidViscosityRPS": {
        "eqno": "12",
        "A": "0.7273",
        "B": "-0.017627",
        "Tmin": "254.15",
        "Tmax": "566.4"
    },
    "COSTALDVolume": "0.460517",
    "DiameterLJ": "7.133208E-10",
    "EnergyLJ": "393.1157",
    "RacketParameter": "0.266",
    "FullerVolume": "125.591",
    "Parachor": "0.0587237",
    "SpecificGravity": "0.9852",
    "Charge": "0",
    "CostaldAcentricFactor": "0.557243",
    "WilsonVolume": "0.132257",
    "UniquacR": "5.5591",
    "UniquacQ": "4.424",
    "ChaoSeaderAcentricFactor": "0.557243",
    "ChaoSeaderSolubilityParameter": "21520",
    "ChaoSeaderLiquidVolume": "0.132257",
    "UnifacVLE": {
        "group": "1"
    },
    "Asog": {
        "group": "1"
    },
    "Umr": {
        "group": "1"
    },
    "ModifiedUnifac": {
        "group": "1"
    },
    "CAS": "140-31-8",
    "Smiles": "C1CNCCN1CCN"
}