{
    "LibraryIndex": "152",
    "CompoundID": "N-butylcyclohexane",
    "StructureFormula": "(C6H11)CH2CH2CH2CH3",
    "Family": "7",
    "CriticalTemperature": "667",
    "CriticalPressure": "2570000",
    "CriticalVolume": "0.534",
    "CriticalCompressibility": "0.247",
    "NormalBoilingPointTemperature": "454.131",
    "NormalMeltingPointTemperature": "198.42",
    "TriplePointTemperature": "198.42",
    "TriplePointPressure": "0.00365804",
    "MolecularWeight": "140.2658",
    "LiquidVolumeAtNormalBoilingPoint": "0.176266",
    "AcentricityFactor": "0.274326",
    "RadiusOfGyration": "4.831E-10",
    "SolubilityParameter": "16400",
    "DipoleMoment": "0",
    "VanDerWaalsVolume": "0.10115",
    "VanDerWaalsArea": "1.292E+09",
    "HeatOfFormation": "-2.1317E+08",
    "GibbsEnergyOfFormation": "5.654E+07",
    "AbsEntropy": "458480",
    "HeatOfFusionAtMeltingPoint": "1.416E+07",
    "MatthiasCopemanC1": "1.0128",
    "HeatOfCombustion": "-6.0902E+09",
    "SolidDensity": {
        "eqno": "2",
        "A": "7.8228",
        "B": "-0.0043849",
        "Tmin": "79.37",
        "Tmax": "198.42"
    },
    "LiquidDensity": {
        "eqno": "105",
        "A": "0.49786",
        "B": "0.26572",
        "C": "667",
        "D": "0.30254",
        "Tmin": "198.42",
        "Tmax": "642.34"
    },
    "VaporPressure": {
        "eqno": "101",
        "A": "82.702",
        "B": "-8417.7",
        "C": "-8.6968",
        "D": "0.0000027713",
        "E": "2",
        "Tmin": "198.42",
        "Tmax": "667"
    },
    "HeatOfVaporization": {
        "eqno": "106",
        "A": "7.7656E+07",
        "B": "1.637",
        "C": "-3.3269",
        "D": "3.6698",
        "E": "-1.48",
        "Tmin": "198.42",
        "Tmax": "642.34"
    },
    "SolidHeatCapacityCp": {
        "eqno": "100",
        "A": "-18810",
        "B": "1861.7",
        "C": "-9.714",
        "D": "0.029711",
        "E": "-0.000021893",
        "Tmin": "19.69",
        "Tmax": "182.77"
    },
    "LiquidHeatCapacityCp": {
        "eqno": "16",
        "A": "117850",
        "B": "44.861",
        "C": "10.356",
        "D": "0.0053947",
        "E": "-0.0000020204",
        "Tmin": "198.42",
        "Tmax": "667"
    },
    "IdealGasHeatCapacityCp": {
        "eqno": "16",
        "A": "145450",
        "B": "-890.37",
        "C": "14.241",
        "D": "-0.0007098",
        "E": "2.1101E-07",
        "Tmin": "150",
        "Tmax": "1500"
    },
    "SecondVirialCoefficient": {
        "eqno": "104",
        "A": "0.30987",
        "B": "-371.48",
        "C": "-115.93",
        "D": "-59916",
        "E": "103120",
        "Tmin": "333.5",
        "Tmax": "1834"
    },
    "LiquidViscosity": {
        "eqno": "101",
        "A": "-66.15115",
        "B": "3536.438",
        "C": "8.46644",
        "D": "-7.612217E-06",
        "E": "2",
        "Tmin": "198.42",
        "Tmax": "600.3"
    },
    "VaporViscosity": {
        "eqno": "102",
        "A": "5.6992E-07",
        "B": "0.52089",
        "C": "326.29",
        "D": "-3328.7",
        "Tmin": "198.42",
        "Tmax": "1000"
    },
    "LiquidThermalConductivity": {
        "eqno": "16",
        "A": "-0.040753",
        "B": "3.9448",
        "C": "-1.6588",
        "D": "-0.00045987",
        "E": "-0.0000010215",
        "Tmin": "198.42",
        "Tmax": "454.43"
    },
    "VaporThermalConductivity": {
        "eqno": "102",
        "A": "0.000063509",
        "B": "1.1032",
        "C": "470.22",
        "D": "42922",
        "Tmin": "198.42",
        "Tmax": "1000"
    },
    "SurfaceTension": {
        "eqno": "16",
        "A": "-0.0078825",
        "B": "39.221",
        "C": "-3.1848",
        "D": "0.00024234",
        "E": "-0.0000043706",
        "Tmin": "198.42",
        "Tmax": "642.34"
    },
    "RPPHeatCapacityCp": {
        "eqno": "4",
        "A": "-60324.92",
        "B": "1061.481",
        "C": "-0.587852",
        "D": "0.000112386",
        "Tmin": "200",
        "Tmax": "1200"
    },
    "AntoineVaporPressure": {
        "eqno": "10",
        "A": "20.259",
        "B": "3153.7",
        "C": "-92.942",
        "Tmin": "406.1",
        "Tmax": "593.01"
    },
    "LiquidViscosityRPS": {
        "eqno": "13",
        "A": "3.0207",
        "B": "-0.046654",
        "C": "0.000047972",
        "Tmin": "198.42",
        "Tmax": "533.6"
    },
    "COSTALDVolume": "0.56133",
    "DiameterLJ": "8.106917E-10",
    "EnergyLJ": "283.6273",
    "FullerVolume": "205.2",
    "MatthiasCopemanC2": "0",
    "Parachor": "0.0704",
    "SpecificGravity": "0.801447",
    "Charge": "0",
    "CostaldAcentricFactor": "0.42513",
    "WilsonVolume": "0.176266",
    "UniquacR": "6.7432",
    "UniquacQ": "5.396",
    "ApiSrkS2": "0.028388",
    "MatthiasCopemanC3": "0",
    "ChaoSeaderAcentricFactor": "0.3618",
    "ChaoSeaderSolubilityParameter": "16411.2",
    "ChaoSeaderLiquidVolume": "0.176266",
    "UnifacVLE": {
        "group": "1"
    },
    "UnifacLLE": {
        "group": "1"
    },
    "Asog": {
        "group": "5"
    },
    "GCmethod": {
        "group": "1"
    },
    "Umr": {
        "group": "1"
    },
    "ModifiedUnifac": {
        "group": "1"
    },
    "CAS": "1678-93-9",
    "Smiles": "C1CCCCC1CCCC"
}