{
    "LibraryIndex": "122",
    "CompoundID": "N-butylcyclopentane",
    "StructureFormula": "(C5H9)CH2CH2CH2CH3",
    "Family": "6",
    "CriticalTemperature": "621",
    "CriticalPressure": "2710000",
    "CriticalVolume": "0.482",
    "CriticalCompressibility": "0.254",
    "NormalBoilingPointTemperature": "429.75",
    "NormalMeltingPointTemperature": "165.165",
    "TriplePointTemperature": "165.18",
    "TriplePointPressure": "0.0000370087",
    "MolecularWeight": "126.2392",
    "LiquidVolumeAtNormalBoilingPoint": "0.161572",
    "AcentricityFactor": "0.37188",
    "RadiusOfGyration": "4.634E-10",
    "SolubilityParameter": "16390",
    "DipoleMoment": "0",
    "VanDerWaalsVolume": "0.09092",
    "VanDerWaalsArea": "1.157E+09",
    "HeatOfFormation": "-1.683E+08",
    "GibbsEnergyOfFormation": "6.217E+07",
    "AbsEntropy": "453800",
    "HeatOfFusionAtMeltingPoint": "1.131E+07",
    "HeatOfCombustion": "-5.5037E+09",
    "SolidDensity": {
        "eqno": "100",
        "A": "8.8832",
        "B": "-0.0067223",
        "C": "0",
        "D": "0",
        "E": "0",
        "Tmin": "66.07",
        "Tmax": "165.18"
    },
    "LiquidDensity": {
        "eqno": "105",
        "A": "0.55321",
        "B": "0.26684",
        "C": "621",
        "D": "0.28873",
        "Tmin": "165.18",
        "Tmax": "597.01"
    },
    "VaporPressure": {
        "eqno": "101",
        "A": "59.57026",
        "B": "-7247.203",
        "C": "-5.051393",
        "D": "-2.973642E-06",
        "E": "2",
        "Tmin": "165.18",
        "Tmax": "621"
    },
    "HeatOfVaporization": {
        "eqno": "106",
        "A": "5.633912E+07",
        "B": "-0.222347",
        "C": "2.054738",
        "D": "-2.396364",
        "E": "0.924309",
        "Tmin": "165.18",
        "Tmax": "597.01"
    },
    "SolidHeatCapacityCp": {
        "eqno": "100",
        "A": "-15856",
        "B": "1577.6",
        "C": "-1.3452",
        "D": "-0.054207",
        "E": "0.00024372",
        "Tmin": "14.41",
        "Tmax": "154.28"
    },
    "LiquidHeatCapacityCp": {
        "eqno": "16",
        "A": "165400",
        "B": "317.8",
        "C": "5.7051",
        "D": "0.0202",
        "E": "-0.000017103",
        "Tmin": "165.18",
        "Tmax": "429.75"
    },
    "IdealGasHeatCapacityCp": {
        "eqno": "16",
        "A": "82154",
        "B": "-554.7",
        "C": "13.299",
        "D": "0.00015408",
        "E": "-5.7536E-08",
        "Tmin": "200",
        "Tmax": "1500"
    },
    "SecondVirialCoefficient": {
        "eqno": "104",
        "A": "0.32315",
        "B": "-400.67",
        "C": "-80.571",
        "D": "-12802",
        "E": "-5984.5",
        "Tmin": "310.5",
        "Tmax": "1500"
    },
    "LiquidViscosity": {
        "eqno": "101",
        "A": "-10.446",
        "B": "1200.4",
        "C": "-0.12541",
        "D": "4.6316E-07",
        "E": "2",
        "Tmin": "165.18",
        "Tmax": "558.9"
    },
    "VaporViscosity": {
        "eqno": "102",
        "A": "0.0000029081",
        "B": "0.33269",
        "C": "700.46",
        "D": "-5220.4",
        "Tmin": "165.18",
        "Tmax": "1000"
    },
    "LiquidThermalConductivity": {
        "eqno": "16",
        "A": "-0.059329",
        "B": "3.6894",
        "C": "-1.5397",
        "D": "-0.00046539",
        "E": "-0.0000010217",
        "Tmin": "165.18",
        "Tmax": "429.75"
    },
    "VaporThermalConductivity": {
        "eqno": "102",
        "A": "0.001615",
        "B": "0.65033",
        "C": "212.05",
        "D": "447790",
        "Tmin": "165.18",
        "Tmax": "1000"
    },
    "SurfaceTension": {
        "eqno": "16",
        "A": "-0.011464",
        "B": "28.973",
        "C": "-3.0712",
        "D": "0.000095681",
        "E": "-0.000003989",
        "Tmin": "165.18",
        "Tmax": "597.01"
    },
    "RPPHeatCapacityCp": {
        "eqno": "4",
        "A": "-39198",
        "B": "866.48",
        "C": "-0.45949",
        "D": "0.000092411",
        "Tmin": "200",
        "Tmax": "1500"
    },
    "AntoineVaporPressure": {
        "eqno": "10",
        "A": "20.885",
        "B": "3420.5",
        "C": "-64.212",
        "Tmin": "375.65",
        "Tmax": "549.03"
    },
    "LiquidViscosityRPS": {
        "eqno": "12",
        "A": "-2.1614",
        "B": "-0.015728",
        "Tmin": "165.18",
        "Tmax": "429.75"
    },
    "COSTALDVolume": "0.500385",
    "DiameterLJ": "7.576352E-10",
    "EnergyLJ": "292.0157",
    "RacketParameter": "0.254",
    "FullerVolume": "184.68",
    "Parachor": "0.0642821",
    "SpecificGravity": "0.789312",
    "Charge": "0",
    "CostaldAcentricFactor": "0.37188",
    "WilsonVolume": "0.161572",
    "UniquacR": "6.068799",
    "UniquacQ": "4.856",
    "ChaoSeaderAcentricFactor": "0.37188",
    "ChaoSeaderSolubilityParameter": "16390",
    "ChaoSeaderLiquidVolume": "0.161572",
    "UnifacVLE": {
        "group": "1"
    },
    "UnifacLLE": {
        "group": "1"
    },
    "Asog": {
        "group": "1"
    },
    "GCmethod": {
        "group": "1"
    },
    "Umr": {
        "group": "1"
    },
    "ModifiedUnifac": {
        "group": "1"
    },
    "CAS": "2040-95-1",
    "Smiles": "C1CCCC1(CCCC)"
}