{
    "LibraryIndex": "1315",
    "CompoundID": "N-butyl acetate",
    "StructureFormula": "CH3COO(CH2)3CH3",
    "Family": "56",
    "CriticalTemperature": "579",
    "CriticalPressure": "3090000",
    "CriticalVolume": "0.4128",
    "CriticalCompressibility": "0.253",
    "NormalBoilingPointTemperature": "399.12",
    "NormalMeltingPointTemperature": "199.65",
    "TriplePointTemperature": "199.65",
    "TriplePointPressure": "0.0816516",
    "MolecularWeight": "116.1583",
    "LiquidVolumeAtNormalBoilingPoint": "0.13251",
    "AcentricityFactor": "0.407",
    "RadiusOfGyration": "4.28E-10",
    "SolubilityParameter": "17670",
    "DipoleMoment": "6.14E-30",
    "VanDerWaalsVolume": "0.07323",
    "VanDerWaalsArea": "1.049E+09",
    "HeatOfFormation": "-4.856E+08",
    "GibbsEnergyOfFormation": "-3.123E+08",
    "AbsEntropy": "442500",
    "HeatOfFusionAtMeltingPoint": "1.44E+07",
    "MatthiasCopemanC1": "1.09",
    "HeatOfCombustion": "-3.283E+09",
    "SolidDensity": {
        "eqno": "2",
        "A": "10.567",
        "B": "-0.0057964",
        "C": "0",
        "D": "0",
        "E": "0",
        "Tmin": "79.86",
        "Tmax": "199.65"
    },
    "LiquidDensity": {
        "eqno": "105",
        "A": "0.13588",
        "B": "0.1193",
        "C": "579",
        "D": "0.16305",
        "Tmin": "199.65",
        "Tmax": "575.4"
    },
    "VaporPressure": {
        "eqno": "101",
        "A": "90.42793",
        "B": "-7625.342",
        "C": "-10.22284",
        "D": "8.987208E-06",
        "E": "2",
        "Tmin": "199.65",
        "Tmax": "575.4"
    },
    "HeatOfVaporization": {
        "eqno": "106",
        "A": "8.192574E+07",
        "B": "1.151594",
        "C": "0.0889674",
        "D": "-1.859865",
        "E": "1.113952",
        "Tmin": "199.65",
        "Tmax": "575.4"
    },
    "SolidHeatCapacityCp": {
        "eqno": "1",
        "A": "182900",
        "Tmin": "0",
        "Tmax": "579"
    },
    "LiquidHeatCapacityCp": {
        "eqno": "16",
        "A": "201710",
        "B": "-19.025",
        "C": "8.0191",
        "D": "0.0068889",
        "E": "0.0000021505",
        "Tmin": "202.7",
        "Tmax": "461.7"
    },
    "IdealGasHeatCapacityCp": {
        "eqno": "16",
        "A": "92876",
        "B": "-666.17",
        "C": "13.432",
        "D": "-0.00066148",
        "E": "3.0678E-07",
        "Tmin": "273",
        "Tmax": "1200"
    },
    "SecondVirialCoefficient": {
        "eqno": "104",
        "A": "0.22835",
        "B": "-267.19",
        "C": "-64.731",
        "D": "-23119",
        "E": "30658",
        "Tmin": "289.5",
        "Tmax": "1737"
    },
    "LiquidViscosity": {
        "eqno": "101",
        "A": "-17.008",
        "B": "1461.1",
        "C": "0.8424",
        "D": "1.1193E-07",
        "E": "2",
        "Tmin": "250",
        "Tmax": "399.26"
    },
    "VaporViscosity": {
        "eqno": "102",
        "A": "1.0488E-07",
        "B": "0.76809",
        "C": "52.337",
        "D": "8271.1",
        "Tmin": "199.65",
        "Tmax": "1000"
    },
    "LiquidThermalConductivity": {
        "eqno": "16",
        "A": "0.04366",
        "B": "-125.65",
        "C": "-0.40686",
        "D": "-0.0059305",
        "E": "0.0000024167",
        "Tmin": "199.65",
        "Tmax": "463.15"
    },
    "VaporThermalConductivity": {
        "eqno": "102",
        "A": "5.9364E-09",
        "B": "2.3739",
        "C": "-402.22",
        "D": "69606",
        "Tmin": "199.65",
        "Tmax": "800"
    },
    "SurfaceTension": {
        "eqno": "16",
        "A": "-0.016732",
        "B": "17.559",
        "C": "-2.7905",
        "D": "-0.00064121",
        "E": "-0.0000029118",
        "Tmin": "199.65",
        "Tmax": "575.4"
    },
    "RPPHeatCapacityCp": {
        "eqno": "4",
        "A": "-22630",
        "B": "742.91",
        "C": "-0.55184",
        "D": "0.0001701",
        "Tmin": "273",
        "Tmax": "1200"
    },
    "RelativeStaticPermittivity": {
        "eqno": "120",
        "A": "-4.114462",
        "B": "-2550",
        "C": "-15.3",
        "Tmin": "273.0389",
        "Tmax": "443.0389"
    },
    "AntoineVaporPressure": {
        "eqno": "10",
        "A": "21.225",
        "B": "3242.2",
        "C": "-64.854",
        "Tmin": "349.03",
        "Tmax": "516.07"
    },
    "LiquidViscosityRPS": {
        "eqno": "12",
        "A": "-3.8704",
        "B": "-0.011433",
        "Tmin": "250",
        "Tmax": "399.26"
    },
    "COSTALDVolume": "0.39539",
    "DiameterLJ": "7.229034E-10",
    "EnergyLJ": "268.4266",
    "RacketParameter": "0.253",
    "FullerVolume": "135.34",
    "MatthiasCopemanC2": "0",
    "Parachor": "0.0528122",
    "SpecificGravity": "0.885234",
    "Charge": "0",
    "CostaldAcentricFactor": "0.407",
    "WilsonVolume": "0.13251",
    "UniquacR": "4.8274",
    "UniquacQ": "4.196",
    "MatthiasCopemanC3": "0",
    "ChaoSeaderAcentricFactor": "0.407",
    "ChaoSeaderSolubilityParameter": "17670",
    "ChaoSeaderLiquidVolume": "0.13251",
    "UnifacVLE": {
        "group": "1"
    },
    "UnifacLLE": {
        "group": "1"
    },
    "Asog": {
        "group": "1"
    },
    "Umr": {
        "group": "1"
    },
    "ModifiedUnifac": {
        "group": "1"
    },
    "CAS": "123-86-4",
    "Smiles": "CC(=O)OCCCC"
}