{
    "LibraryIndex": "1256",
    "CompoundID": "N-butyric acid",
    "StructureFormula": "CH3CH2CH2COOH",
    "Family": "50",
    "CriticalTemperature": "624",
    "CriticalPressure": "4030000",
    "CriticalVolume": "0.292",
    "CriticalCompressibility": "0.227",
    "NormalBoilingPointTemperature": "436.87",
    "NormalMeltingPointTemperature": "267.95",
    "TriplePointTemperature": "267.95",
    "TriplePointPressure": "10.3",
    "MolecularWeight": "88.10513",
    "LiquidVolumeAtNormalBoilingPoint": "0.09246",
    "AcentricityFactor": "0.72",
    "RadiusOfGyration": "3.61E-10",
    "SolubilityParameter": "20180",
    "DipoleMoment": "5.5E-30",
    "VanDerWaalsVolume": "0.05365",
    "VanDerWaalsArea": "7.88E+08",
    "HeatOfFormation": "-4.758E+08",
    "GibbsEnergyOfFormation": "-3.6E+08",
    "AbsEntropy": "360100",
    "HeatOfFusionAtMeltingPoint": "1.159E+07",
    "MatthiasCopemanC1": "1.34915",
    "HeatOfCombustion": "-2.008E+09",
    "SolidDensity": {
        "eqno": "2",
        "A": "14.238",
        "B": "-0.0069956",
        "Tmin": "90.15",
        "Tmax": "267.95"
    },
    "LiquidDensity": {
        "eqno": "105",
        "A": "0.702",
        "B": "0.22902",
        "C": "628.16",
        "D": "0.24275",
        "Tmin": "267.95",
        "Tmax": "628.15"
    },
    "VaporPressure": {
        "eqno": "101",
        "A": "54.31047",
        "B": "-7692.649",
        "C": "-4.148708",
        "D": "2.624319E-07",
        "E": "2",
        "Tmin": "267.95",
        "Tmax": "625.15"
    },
    "HeatOfVaporization": {
        "eqno": "106",
        "A": "5.1387E+07",
        "B": "1.1517",
        "C": "-2.7656",
        "D": "2.6617",
        "E": "-0.66983",
        "Tmin": "250",
        "Tmax": "615.7"
    },
    "SolidHeatCapacityCp": {
        "eqno": "100",
        "A": "-1354100",
        "B": "26070",
        "C": "-174.59",
        "D": "0.51718",
        "E": "-0.00056018",
        "Tmin": "150",
        "Tmax": "298.15"
    },
    "LiquidHeatCapacityCp": {
        "eqno": "16",
        "A": "135560",
        "B": "664.7",
        "C": "1.9592",
        "D": "0.027685",
        "E": "-0.000020111",
        "Tmin": "267.89",
        "Tmax": "436.42"
    },
    "IdealGasHeatCapacityCp": {
        "eqno": "16",
        "A": "75565",
        "B": "-613.25",
        "C": "12.671",
        "D": "-0.000058773",
        "E": "-2.4845E-08",
        "Tmin": "267.95",
        "Tmax": "1500"
    },
    "LiquidViscosity": {
        "eqno": "101",
        "A": "14.241",
        "B": "534.99",
        "C": "-4.0411",
        "D": "0.0000053437",
        "E": "2",
        "Tmin": "267.95",
        "Tmax": "524"
    },
    "VaporViscosity": {
        "eqno": "102",
        "A": "2.2745E-08",
        "B": "1.0055",
        "C": "13.097",
        "D": "182.58",
        "Tmin": "267.95",
        "Tmax": "1000"
    },
    "LiquidThermalConductivity": {
        "eqno": "16",
        "A": "-0.043955",
        "B": "57.698",
        "C": "-1.8847",
        "D": "0.00050649",
        "E": "-0.0000013441",
        "Tmin": "259.29",
        "Tmax": "573.15"
    },
    "VaporThermalConductivity": {
        "eqno": "3",
        "A": "-0.00409203",
        "B": "0.000031254",
        "C": "6.389989E-08",
        "Tmin": "267.95",
        "Tmax": "706.95"
    },
    "SurfaceTension": {
        "eqno": "16",
        "A": "-0.0076127",
        "B": "373.93",
        "C": "-6.0915",
        "D": "0.0084349",
        "E": "-0.000011979",
        "Tmin": "267.95",
        "Tmax": "615.7"
    },
    "RPPHeatCapacityCp": {
        "eqno": "4",
        "A": "9096.2",
        "B": "429.44",
        "C": "-0.26202",
        "D": "0.000057916",
        "Tmin": "267.95",
        "Tmax": "1500"
    },
    "RelativeStaticPermittivity": {
        "eqno": "120",
        "A": "-2.197557",
        "B": "-1450",
        "C": "-8.7",
        "Tmin": "274.15",
        "Tmax": "444.15"
    },
    "AntoineVaporPressure": {
        "eqno": "10",
        "A": "22.149",
        "B": "3703.9",
        "C": "-87.868",
        "Tmin": "374.82",
        "Tmax": "560.79"
    },
    "LiquidViscosityRPS": {
        "eqno": "13",
        "A": "1.4201",
        "B": "-0.037098",
        "C": "0.000035218",
        "Tmin": "267.95",
        "Tmax": "436.42"
    },
    "COSTALDVolume": "0.285694",
    "DiameterLJ": "7.336263E-10",
    "EnergyLJ": "195.7901",
    "FullerVolume": "94.3",
    "MatthiasCopemanC2": "0",
    "Parachor": "0.0372",
    "SpecificGravity": "0.95962",
    "Charge": "0",
    "CostaldAcentricFactor": "0.683",
    "WilsonVolume": "0.0924567",
    "UniquacR": "3.5512",
    "UniquacQ": "3.152",
    "MatthiasCopemanC3": "0",
    "ChaoSeaderAcentricFactor": "0.683",
    "ChaoSeaderSolubilityParameter": "20262.7",
    "ChaoSeaderLiquidVolume": "0.0924567",
    "UnifacVLE": {
        "group": "1"
    },
    "UnifacLLE": {
        "group": "1"
    },
    "Umr": {
        "group": "1"
    },
    "ModifiedUnifac": {
        "group": "1"
    },
    "CAS": "107-92-6",
    "Smiles": "CCCC(=O)O"
}