{
    "LibraryIndex": "79",
    "CompoundID": "N-hexacosane",
    "StructureFormula": "CH3(CH2)24CH3",
    "Family": "1",
    "CriticalTemperature": "819",
    "CriticalPressure": "910000",
    "CriticalVolume": "1.52",
    "CriticalCompressibility": "0.203126",
    "NormalBoilingPointTemperature": "685.35",
    "NormalMeltingPointTemperature": "329.55",
    "TriplePointTemperature": "329.25",
    "TriplePointPressure": "0.000515816",
    "MolecularWeight": "366.707",
    "LiquidVolumeAtNormalBoilingPoint": "0.4561",
    "AcentricityFactor": "1.15444",
    "RadiusOfGyration": "9.83E-10",
    "SolubilityParameter": "15800",
    "DipoleMoment": "0",
    "VanDerWaalsVolume": "0.2729",
    "VanDerWaalsArea": "3.664E+09",
    "HeatOfFormation": "-5.814E+08",
    "GibbsEnergyOfFormation": "1.636E+08",
    "AbsEntropy": "1176000",
    "HeatOfFusionAtMeltingPoint": "5.9496E+07",
    "MatthiasCopemanC1": "1.875734",
    "HeatOfCombustion": "-1.6E+10",
    "SolidDensity": {
        "eqno": "2",
        "A": "3.1664",
        "B": "-0.0021136",
        "C": "0",
        "D": "0",
        "E": "0",
        "Tmin": "292.25",
        "Tmax": "329.25"
    },
    "LiquidDensity": {
        "eqno": "105",
        "A": "0.0012458",
        "B": "0.021983",
        "C": "844.7",
        "D": "0.10464",
        "Tmin": "273.15",
        "Tmax": "819"
    },
    "VaporPressure": {
        "eqno": "101",
        "A": "-181.3952",
        "B": "-2296.288",
        "C": "31.90668",
        "D": "-0.0000256231",
        "E": "2",
        "Tmin": "329.25",
        "Tmax": "819"
    },
    "HeatOfVaporization": {
        "eqno": "106",
        "A": "2.0502E+08",
        "B": "2.0708",
        "C": "-3.8957",
        "D": "4.3419",
        "E": "-2.0579",
        "Tmin": "329.25",
        "Tmax": "819"
    },
    "SolidHeatCapacityCp": {
        "eqno": "100",
        "A": "-38418",
        "B": "3706.2",
        "C": "-2.4141",
        "D": "-0.050428",
        "E": "0.00014632",
        "Tmin": "13.83",
        "Tmax": "320.36"
    },
    "LiquidHeatCapacityCp": {
        "eqno": "16",
        "A": "657670",
        "B": "-651.68",
        "C": "14.164",
        "D": "-0.00036454",
        "E": "7.7672E-07",
        "Tmin": "320",
        "Tmax": "750"
    },
    "IdealGasHeatCapacityCp": {
        "eqno": "16",
        "A": "342560",
        "B": "-564.25",
        "C": "14.318",
        "D": "0.00013185",
        "E": "-5.001E-08",
        "Tmin": "273",
        "Tmax": "1500"
    },
    "SecondVirialCoefficient": {
        "eqno": "104",
        "A": "0.91137",
        "B": "-367.77",
        "C": "-1348.9",
        "D": "-3484600",
        "E": "6989300",
        "Tmin": "409.5",
        "Tmax": "1500"
    },
    "LiquidViscosity": {
        "eqno": "101",
        "A": "-92.13292",
        "B": "5845.982",
        "C": "12.08985",
        "D": "-8.198834E-06",
        "E": "2",
        "Tmin": "329.25",
        "Tmax": "813.15"
    },
    "VaporViscosity": {
        "eqno": "102",
        "A": "2.7977E-07",
        "B": "0.616",
        "C": "732.48",
        "D": "6359.2",
        "Tmin": "329.25",
        "Tmax": "1000"
    },
    "LiquidThermalConductivity": {
        "eqno": "16",
        "A": "0.020148",
        "B": "-211.96",
        "C": "-0.39294",
        "D": "-0.0031327",
        "E": "1.9698E-07",
        "Tmin": "329.25",
        "Tmax": "685.35"
    },
    "VaporThermalConductivity": {
        "eqno": "102",
        "A": "-164.53",
        "B": "1.0626",
        "C": "-4.163E+09",
        "D": "-7.6944E+10",
        "Tmin": "329.25",
        "Tmax": "1000"
    },
    "SurfaceTension": {
        "eqno": "16",
        "A": "-0.066949",
        "B": "-1.3964",
        "C": "-2.0199",
        "D": "-0.0011254",
        "E": "0.0000003598",
        "Tmin": "329.25",
        "Tmax": "819"
    },
    "RPPHeatCapacityCp": {
        "eqno": "4",
        "A": "-19227",
        "B": "2464",
        "C": "-1.3788",
        "D": "0.00029808",
        "Tmin": "300",
        "Tmax": "1500"
    },
    "AntoineVaporPressure": {
        "eqno": "10",
        "A": "21.698",
        "B": "5292.3",
        "C": "-164.22",
        "Tmin": "509.68",
        "Tmax": "741.67"
    },
    "LiquidViscosityRPS": {
        "eqno": "12",
        "A": "-2.5609",
        "B": "-0.0092454",
        "Tmin": "329.25",
        "Tmax": "813.15"
    },
    "COSTALDVolume": "1.831535",
    "DiameterLJ": "1.438745E-09",
    "EnergyLJ": "177.2562",
    "RacketParameter": "0.226541",
    "FullerVolume": "538.14",
    "MatthiasCopemanC2": "0",
    "Parachor": "0.197603",
    "SpecificGravity": "0.803608",
    "Charge": "0",
    "CostaldAcentricFactor": "1.03",
    "WilsonVolume": "0.4561",
    "UniquacR": "17.9878",
    "UniquacQ": "14.656",
    "MatthiasCopemanC3": "0",
    "ChaoSeaderAcentricFactor": "1.15444",
    "ChaoSeaderSolubilityParameter": "15800",
    "ChaoSeaderLiquidVolume": "0.4561",
    "UnifacVLE": {
        "group": "24"
    },
    "UnifacLLE": {
        "group": "24"
    },
    "Asog": {
        "group": "24"
    },
    "GCmethod": {
        "group": "24"
    },
    "Umr": {
        "group": "24"
    },
    "ModifiedUnifac": {
        "group": "24"
    },
    "CAS": "630-01-3",
    "Smiles": "CCCCCCCCCCCCCCCCCCCCCCCCCC"
}