{
    "LibraryIndex": "69",
    "CompoundID": "N-heptadecane",
    "StructureFormula": "CH3(CH2)15CH3",
    "Family": "1",
    "CriticalTemperature": "736",
    "CriticalPressure": "1340000",
    "CriticalVolume": "1.103",
    "CriticalCompressibility": "0.242",
    "NormalBoilingPointTemperature": "574.56",
    "NormalMeltingPointTemperature": "295.127",
    "TriplePointTemperature": "295.134",
    "TriplePointPressure": "0.0465559",
    "MolecularWeight": "240.4677",
    "LiquidVolumeAtNormalBoilingPoint": "0.31045",
    "AcentricityFactor": "0.762",
    "RadiusOfGyration": "7.355E-10",
    "SolubilityParameter": "16100",
    "DipoleMoment": "0",
    "VanDerWaalsVolume": "0.1808",
    "VanDerWaalsArea": "2.449E+09",
    "HeatOfFormation": "-3.939E+08",
    "GibbsEnergyOfFormation": "9.083E+07",
    "AbsEntropy": "820230",
    "HeatOfFusionAtMeltingPoint": "4.0459E+07",
    "MatthiasCopemanC1": "1.7889",
    "HeatOfCombustion": "-1.05618E+10",
    "SolidDensity": {
        "eqno": "2",
        "A": "4.0831",
        "B": "-0.001532",
        "C": "0",
        "D": "0",
        "E": "0",
        "Tmin": "118.05",
        "Tmax": "295.13"
    },
    "LiquidDensity": {
        "eqno": "105",
        "A": "0.1972",
        "B": "0.22446",
        "C": "736",
        "D": "0.27261",
        "Tmin": "273.15",
        "Tmax": "736"
    },
    "VaporPressure": {
        "eqno": "101",
        "A": "230.4768",
        "B": "-19512.15",
        "C": "-29.73776",
        "D": "0.0000119109",
        "E": "2",
        "Tmin": "295.13",
        "Tmax": "736"
    },
    "HeatOfVaporization": {
        "eqno": "106",
        "A": "1.1837E+08",
        "B": "0.45937",
        "C": "1.0501",
        "D": "-1.8353",
        "E": "0.77357",
        "Tmin": "295.13",
        "Tmax": "736"
    },
    "SolidHeatCapacityCp": {
        "eqno": "100",
        "A": "-59944",
        "B": "3834.8",
        "C": "-16.853",
        "D": "0.031845",
        "E": "0.0000086344",
        "Tmin": "30.46",
        "Tmax": "270.7"
    },
    "LiquidHeatCapacityCp": {
        "eqno": "16",
        "A": "341660",
        "B": "-48.077",
        "C": "11.234",
        "D": "0.0041437",
        "E": "-0.0000017269",
        "Tmin": "295",
        "Tmax": "575.3"
    },
    "IdealGasHeatCapacityCp": {
        "eqno": "16",
        "A": "247870",
        "B": "-663.74",
        "C": "14.166",
        "D": "-0.00017722",
        "E": "5.7891E-08",
        "Tmin": "200",
        "Tmax": "1500"
    },
    "SecondVirialCoefficient": {
        "eqno": "104",
        "A": "0.44015",
        "B": "-297.46",
        "C": "-550.48",
        "D": "-414510",
        "E": "499680",
        "Tmin": "366.69",
        "Tmax": "1686.69"
    },
    "LiquidViscosity": {
        "eqno": "101",
        "A": "-77.193",
        "B": "4597",
        "C": "9.9892",
        "D": "-0.0000084702",
        "E": "2",
        "Tmin": "293.15",
        "Tmax": "588.15"
    },
    "VaporViscosity": {
        "eqno": "102",
        "A": "3.2694E-07",
        "B": "0.5961",
        "C": "448.22",
        "D": "45523",
        "Tmin": "295.13",
        "Tmax": "1000"
    },
    "LiquidThermalConductivity": {
        "eqno": "16",
        "A": "-0.015537",
        "B": "-239.33",
        "C": "0.042685",
        "D": "-0.0038367",
        "E": "8.6547E-07",
        "Tmin": "295.13",
        "Tmax": "575.3"
    },
    "VaporThermalConductivity": {
        "eqno": "102",
        "A": "-115.33",
        "B": "1.0524",
        "C": "-2.1515E+09",
        "D": "-1.3137E+10",
        "Tmin": "295.134",
        "Tmax": "1000"
    },
    "SurfaceTension": {
        "eqno": "16",
        "A": "-0.038127",
        "B": "-105.48",
        "C": "-1.5195",
        "D": "-0.0033062",
        "E": "0.000001514",
        "Tmin": "293.15",
        "Tmax": "736"
    },
    "RPPHeatCapacityCp": {
        "eqno": "100",
        "A": "197990",
        "B": "-76.576",
        "C": "3.7692",
        "D": "-0.0050387",
        "E": "0.0000020333",
        "Tmin": "200",
        "Tmax": "1000"
    },
    "AntoineVaporPressure": {
        "eqno": "10",
        "A": "21.204",
        "B": "4403.1",
        "C": "-120.35",
        "Tmin": "448.16",
        "Tmax": "650"
    },
    "LiquidViscosityRPS": {
        "eqno": "12",
        "A": "-3.0515",
        "B": "-0.0099131",
        "Tmin": "293.15",
        "Tmax": "588.15"
    },
    "COSTALDVolume": "1.149922",
    "DiameterLJ": "1.058091E-09",
    "EnergyLJ": "290.7544",
    "RacketParameter": "0.242",
    "FullerVolume": "353.46",
    "MatthiasCopemanC2": "-1.9601",
    "Parachor": "0.128272",
    "SpecificGravity": "0.779388",
    "Charge": "0",
    "CostaldAcentricFactor": "0.762",
    "WilsonVolume": "0.31045",
    "UniquacR": "11.9182",
    "UniquacQ": "9.796",
    "MatthiasCopemanC3": "4.6926",
    "ChaoSeaderAcentricFactor": "0.762",
    "ChaoSeaderSolubilityParameter": "16100",
    "ChaoSeaderLiquidVolume": "0.31045",
    "UnifacVLE": {
        "group": "15"
    },
    "UnifacLLE": {
        "group": "15"
    },
    "Asog": {
        "group": "15"
    },
    "GCmethod": {
        "group": "15"
    },
    "Umr": {
        "group": "15"
    },
    "ModifiedUnifac": {
        "group": "15"
    },
    "CAS": "629-78-7",
    "Smiles": "CCCCCCCCCCCCCCCCC"
}