{
    "LibraryIndex": "1363",
    "CompoundID": "N-hexyl acetate",
    "StructureFormula": "CH3COOCH2(CH2)4CH3",
    "Family": "56",
    "CriticalTemperature": "623.5",
    "CriticalPressure": "2410000",
    "CriticalVolume": "0.519",
    "CriticalCompressibility": "0.244",
    "NormalBoilingPointTemperature": "444.65",
    "NormalMeltingPointTemperature": "192.25",
    "TriplePointTemperature": "192.25",
    "TriplePointPressure": "0.000851561",
    "MolecularWeight": "144.2114",
    "LiquidVolumeAtNormalBoilingPoint": "0.166008",
    "AcentricityFactor": "0.461433",
    "RadiusOfGyration": "5.16E-10",
    "SolubilityParameter": "17200",
    "DipoleMoment": "6.2E-30",
    "VanDerWaalsVolume": "0.09369",
    "VanDerWaalsArea": "1.319E+09",
    "HeatOfFormation": "-5.263E+08",
    "GibbsEnergyOfFormation": "-2.954E+08",
    "AbsEntropy": "520900",
    "HeatOfFusionAtMeltingPoint": "1.69E+07",
    "MatthiasCopemanC1": "1.17",
    "HeatOfCombustion": "-4.505E+09",
    "SolidDensity": {
        "eqno": "100",
        "A": "8.5065",
        "B": "-0.0055309",
        "C": "0",
        "D": "0",
        "E": "0",
        "Tmin": "76.9",
        "Tmax": "192.25"
    },
    "LiquidDensity": {
        "eqno": "105",
        "A": "0.39801",
        "B": "0.22828",
        "C": "623.5",
        "D": "0.26879",
        "Tmin": "192.25",
        "Tmax": "595.59"
    },
    "VaporPressure": {
        "eqno": "101",
        "A": "135.2",
        "B": "-10778",
        "C": "-16.633",
        "D": "0.000010146",
        "E": "2",
        "Tmin": "192.25",
        "Tmax": "618"
    },
    "HeatOfVaporization": {
        "eqno": "106",
        "A": "7.6365E+07",
        "B": "1.3535",
        "C": "-2.7266",
        "D": "3.0189",
        "E": "-1.2516",
        "Tmin": "192.25",
        "Tmax": "618"
    },
    "SolidHeatCapacityCp": {
        "eqno": "1",
        "A": "234920",
        "Tmin": "0",
        "Tmax": "623.5"
    },
    "LiquidHeatCapacityCp": {
        "eqno": "16",
        "A": "152410",
        "B": "849.23",
        "C": "3.575",
        "D": "0.024024",
        "E": "-0.000019964",
        "Tmin": "298",
        "Tmax": "444.65"
    },
    "IdealGasHeatCapacityCp": {
        "eqno": "16",
        "A": "74275",
        "B": "-423.1",
        "C": "13.088",
        "D": "0.00020721",
        "E": "-5.6794E-08",
        "Tmin": "273",
        "Tmax": "1500"
    },
    "SecondVirialCoefficient": {
        "eqno": "104",
        "A": "0.26575",
        "B": "-251.71",
        "C": "-141.73",
        "D": "30213",
        "E": "-150230",
        "Tmin": "309",
        "Tmax": "1500"
    },
    "LiquidViscosity": {
        "eqno": "101",
        "A": "-11.853",
        "B": "1437.9",
        "C": "0.03568",
        "D": "-1.5887E-07",
        "E": "2",
        "Tmin": "192.25",
        "Tmax": "573"
    },
    "VaporViscosity": {
        "eqno": "102",
        "A": "0.0000001052",
        "B": "0.76244",
        "C": "141.7",
        "D": "-5217.3",
        "Tmin": "192.25",
        "Tmax": "1000"
    },
    "LiquidThermalConductivity": {
        "eqno": "16",
        "A": "0.076217",
        "B": "432.06",
        "C": "-6.6217",
        "D": "0.014354",
        "E": "-0.00002134",
        "Tmin": "192.25",
        "Tmax": "533.15"
    },
    "VaporThermalConductivity": {
        "eqno": "102",
        "A": "-96.991",
        "B": "-0.0010535",
        "C": "51726",
        "D": "-1.0193E+09",
        "Tmin": "192.25",
        "Tmax": "1000"
    },
    "SurfaceTension": {
        "eqno": "16",
        "A": "-0.016381",
        "B": "19.416",
        "C": "-2.8226",
        "D": "-0.00062558",
        "E": "-0.000002447",
        "Tmin": "192.25",
        "Tmax": "618"
    },
    "RPPHeatCapacityCp": {
        "eqno": "4",
        "A": "-13149",
        "B": "859.66",
        "C": "-0.53308",
        "D": "0.00012944",
        "Tmin": "273",
        "Tmax": "1500"
    },
    "AntoineVaporPressure": {
        "eqno": "10",
        "A": "21.124",
        "B": "3454.4",
        "C": "-83.742",
        "Tmin": "380.55",
        "Tmax": "550.78"
    },
    "LiquidViscosityRPS": {
        "eqno": "12",
        "A": "-1.9193",
        "B": "-0.015758",
        "Tmin": "192.25",
        "Tmax": "444.65"
    },
    "COSTALDVolume": "0.517431",
    "DiameterLJ": "8.148912E-10",
    "EnergyLJ": "253.719",
    "RacketParameter": "0.244",
    "FullerVolume": "176.38",
    "MatthiasCopemanC2": "0",
    "Parachor": "0.0672192",
    "SpecificGravity": "0.87832",
    "Charge": "0",
    "CostaldAcentricFactor": "0.461433",
    "WilsonVolume": "0.166008",
    "UniquacR": "6.1762",
    "UniquacQ": "5.276",
    "MatthiasCopemanC3": "0",
    "ChaoSeaderAcentricFactor": "0.539588",
    "ChaoSeaderSolubilityParameter": "17200",
    "ChaoSeaderLiquidVolume": "0.166008",
    "UnifacVLE": {
        "group": "1"
    },
    "UnifacLLE": {
        "group": "1"
    },
    "Asog": {
        "group": "1"
    },
    "Umr": {
        "group": "1"
    },
    "ModifiedUnifac": {
        "group": "1"
    },
    "CAS": "142-92-7",
    "Smiles": "CCCCCCOC(=O)C"
}