{
    "LibraryIndex": "17",
    "CompoundID": "N-heptane",
    "StructureFormula": "CH3(CH2)5CH3",
    "Family": "1",
    "CriticalTemperature": "540.2",
    "CriticalPressure": "2740000",
    "CriticalVolume": "0.428",
    "CriticalCompressibility": "0.261",
    "NormalBoilingPointTemperature": "371.57",
    "NormalMeltingPointTemperature": "182.57",
    "TriplePointTemperature": "182.57",
    "TriplePointPressure": "0.182694",
    "MolecularWeight": "100.202",
    "LiquidVolumeAtNormalBoilingPoint": "0.14747",
    "AcentricityFactor": "0.35",
    "RadiusOfGyration": "4.173E-10",
    "SolubilityParameter": "15240",
    "DipoleMoment": "0",
    "VanDerWaalsVolume": "0.07849",
    "VanDerWaalsArea": "1.099E+09",
    "HeatOfFormation": "-1.8765E+08",
    "GibbsEnergyOfFormation": "8165000",
    "AbsEntropy": "427980",
    "HeatOfFusionAtMeltingPoint": "1.405E+07",
    "MatthiasCopemanC1": "1.00313",
    "HeatOfCombustion": "-4.46473E+09",
    "SolidDensity": {
        "eqno": "2",
        "A": "9.1435",
        "B": "-0.0028756",
        "Tmin": "133.15",
        "Tmax": "182.58"
    },
    "LiquidDensity": {
        "eqno": "105",
        "A": "0.57043",
        "B": "0.25304",
        "C": "540.2",
        "D": "0.27335",
        "Tmin": "182.57",
        "Tmax": "540.2"
    },
    "VaporPressure": {
        "eqno": "101",
        "A": "89.80457",
        "B": "-7084.845",
        "C": "-10.17918",
        "D": "7.441708E-06",
        "E": "2",
        "Tmin": "182.57",
        "Tmax": "540.2"
    },
    "HeatOfVaporization": {
        "eqno": "106",
        "A": "4.275764E+07",
        "B": "-1.051245",
        "C": "4.601706",
        "D": "-5.558946",
        "E": "2.369496",
        "Tmin": "182.57",
        "Tmax": "540.2"
    },
    "SolidHeatCapacityCp": {
        "eqno": "100",
        "A": "-20510",
        "B": "1728.5",
        "C": "-6.4728",
        "D": "-0.0018307",
        "E": "0.000070938",
        "Tmin": "20",
        "Tmax": "182.58"
    },
    "LiquidHeatCapacityCp": {
        "eqno": "16",
        "A": "134750",
        "B": "14.937",
        "C": "10.603",
        "D": "0.001438",
        "E": "0.0000036711",
        "Tmin": "182.55",
        "Tmax": "520"
    },
    "IdealGasHeatCapacityCp": {
        "eqno": "16",
        "A": "109310",
        "B": "-704.2",
        "C": "13.352",
        "D": "-0.00017922",
        "E": "4.6992E-08",
        "Tmin": "200",
        "Tmax": "1500"
    },
    "SecondVirialCoefficient": {
        "eqno": "104",
        "A": "0.23983",
        "B": "-244.66",
        "C": "-54.176",
        "D": "2830.8",
        "E": "-15702",
        "Tmin": "264",
        "Tmax": "1500"
    },
    "LiquidViscosity": {
        "eqno": "101",
        "A": "-61.08861",
        "B": "2532.297",
        "C": "8.091665",
        "D": "-0.0000152585",
        "E": "2",
        "Tmin": "180.15",
        "Tmax": "540.2"
    },
    "VaporViscosity": {
        "eqno": "102",
        "A": "2.6134E-08",
        "B": "0.948",
        "C": "-37.497",
        "D": "9005.3",
        "Tmin": "182.57",
        "Tmax": "1000"
    },
    "LiquidThermalConductivity": {
        "eqno": "16",
        "A": "0.083657",
        "B": "49.111",
        "C": "-3.4536",
        "D": "0.0077989",
        "E": "-0.000025112",
        "Tmin": "182.57",
        "Tmax": "393.15"
    },
    "VaporThermalConductivity": {
        "eqno": "102",
        "A": "-0.076333",
        "B": "0.38025",
        "C": "-7539.9",
        "D": "-2646800",
        "Tmin": "182.57",
        "Tmax": "1000"
    },
    "SurfaceTension": {
        "eqno": "16",
        "A": "-0.007741",
        "B": "65.405",
        "C": "-3.6478",
        "D": "0.001894",
        "E": "-0.0000081692",
        "Tmin": "182.57",
        "Tmax": "540.2"
    },
    "RPPHeatCapacityCp": {
        "eqno": "100",
        "A": "80102",
        "B": "34.555",
        "C": "1.2882",
        "D": "-0.0016684",
        "E": "6.4603E-07",
        "Tmin": "200",
        "Tmax": "1000"
    },
    "AntoineVaporPressure": {
        "eqno": "10",
        "A": "20.995",
        "B": "3044.2",
        "C": "-50.149",
        "Tmin": "324.35",
        "Tmax": "483.73"
    },
    "LiquidViscosityRPS": {
        "eqno": "13",
        "A": "-0.018303",
        "B": "-0.039206",
        "C": "0.000043234",
        "Tmin": "180.15",
        "Tmax": "432.16"
    },
    "COSTALDVolume": "0.43044",
    "DiameterLJ": "7.048406E-10",
    "EnergyLJ": "280.139",
    "RacketParameter": "0.2611",
    "FullerVolume": "148.26",
    "MatthiasCopemanC2": "0",
    "Parachor": "0.0549",
    "SpecificGravity": "0.686815",
    "Charge": "0",
    "CostaldAcentricFactor": "0.35069",
    "WilsonVolume": "0.147014",
    "UniquacR": "5.1742",
    "UniquacQ": "4.396",
    "UniquacQP": "4.396",
    "ApiSrkS2": "-0.003031",
    "MatthiasCopemanC3": "0",
    "ChaoSeaderAcentricFactor": "0.3403",
    "ChaoSeaderSolubilityParameter": "15230",
    "ChaoSeaderLiquidVolume": "0.1475",
    "UnifacVLE": {
        "group": "5"
    },
    "UnifacLLE": {
        "group": "5"
    },
    "Asog": {
        "group": "5"
    },
    "GCmethod": {
        "group": "5"
    },
    "Umr": {
        "group": "5"
    },
    "ModifiedUnifac": {
        "group": "5"
    },
    "CAS": "142-82-5",
    "Smiles": "CCCCCCC"
}