{
    "LibraryIndex": "46",
    "CompoundID": "N-nonane",
    "StructureFormula": "CH3(CH2)7CH3",
    "Family": "1",
    "CriticalTemperature": "594.6",
    "CriticalPressure": "2290000",
    "CriticalVolume": "0.555",
    "CriticalCompressibility": "0.257",
    "NormalBoilingPointTemperature": "423.97",
    "NormalMeltingPointTemperature": "219.66",
    "TriplePointTemperature": "219.66",
    "TriplePointPressure": "0.430583",
    "MolecularWeight": "128.2551",
    "LiquidVolumeAtNormalBoilingPoint": "0.1797",
    "AcentricityFactor": "0.443",
    "RadiusOfGyration": "4.814E-10",
    "SolubilityParameter": "15630",
    "DipoleMoment": "0",
    "VanDerWaalsVolume": "0.09895",
    "VanDerWaalsArea": "1.369E+09",
    "HeatOfFormation": "-2.2874E+08",
    "GibbsEnergyOfFormation": "2.498E+07",
    "AbsEntropy": "506400",
    "HeatOfFusionAtMeltingPoint": "1.547E+07",
    "MatthiasCopemanC1": "0.99218",
    "HeatOfCombustion": "-5.68455E+09",
    "SolidDensity": {
        "eqno": "2",
        "A": "7.4283",
        "B": "-0.0023699",
        "Tmin": "193.15",
        "Tmax": "219.66"
    },
    "LiquidDensity": {
        "eqno": "105",
        "A": "0.46379",
        "B": "0.25569",
        "C": "594.6",
        "D": "0.27961",
        "Tmin": "219.66",
        "Tmax": "594.6"
    },
    "VaporPressure": {
        "eqno": "101",
        "A": "34.38252",
        "B": "-6235.412",
        "C": "-1.153933",
        "D": "-6.408486E-06",
        "E": "2",
        "Tmin": "219.66",
        "Tmax": "594.6"
    },
    "HeatOfVaporization": {
        "eqno": "106",
        "A": "8.427482E+07",
        "B": "1.573752",
        "C": "-1.785921",
        "D": "0.692082",
        "E": "0.00268541",
        "Tmin": "219.63",
        "Tmax": "594.6"
    },
    "SolidHeatCapacityCp": {
        "eqno": "100",
        "A": "-28596",
        "B": "2152.5",
        "C": "-8.5201",
        "D": "0.0044645",
        "E": "0.000055805",
        "Tmin": "20",
        "Tmax": "217.21"
    },
    "LiquidHeatCapacityCp": {
        "eqno": "16",
        "A": "263370",
        "B": "-14466",
        "C": "134.04",
        "D": "-0.36823",
        "E": "0.00038456",
        "Tmin": "219.66",
        "Tmax": "325"
    },
    "IdealGasHeatCapacityCp": {
        "eqno": "16",
        "A": "137710",
        "B": "-699.52",
        "C": "13.613",
        "D": "-0.00021735",
        "E": "5.3695E-08",
        "Tmin": "200",
        "Tmax": "1500"
    },
    "SecondVirialCoefficient": {
        "eqno": "104",
        "A": "0.46778",
        "B": "-570.55",
        "C": "-46.368",
        "D": "-127140",
        "E": "315920",
        "Tmin": "297.83",
        "Tmax": "1500"
    },
    "LiquidViscosity": {
        "eqno": "101",
        "A": "-75.488",
        "B": "3420.7",
        "C": "10.183",
        "D": "-0.000014836",
        "E": "2",
        "Tmin": "218.15",
        "Tmax": "593.15"
    },
    "VaporViscosity": {
        "eqno": "102",
        "A": "1.0363E-07",
        "B": "0.77284",
        "C": "221.39",
        "D": "-190.1",
        "Tmin": "219.66",
        "Tmax": "1000"
    },
    "LiquidThermalConductivity": {
        "eqno": "16",
        "A": "0.022998",
        "B": "-23.224",
        "C": "-1.6475",
        "D": "-0.000633",
        "E": "-0.0000035211",
        "Tmin": "219.66",
        "Tmax": "423.97"
    },
    "VaporThermalConductivity": {
        "eqno": "102",
        "A": "-0.065472",
        "B": "0.27739",
        "C": "-3569.2",
        "D": "-1629700",
        "Tmin": "219.66",
        "Tmax": "1000"
    },
    "SurfaceTension": {
        "eqno": "16",
        "A": "-0.0056952",
        "B": "124.02",
        "C": "-4.2139",
        "D": "0.0035336",
        "E": "-0.0000093096",
        "Tmin": "219.66",
        "Tmax": "594.6"
    },
    "RPPHeatCapacityCp": {
        "eqno": "100",
        "A": "101040",
        "B": "38.039",
        "C": "1.6975",
        "D": "-0.0022264",
        "E": "8.7011E-07",
        "Tmin": "200",
        "Tmax": "1000"
    },
    "RelativeStaticPermittivity": {
        "eqno": "120",
        "A": "-1.4825",
        "B": "-1000",
        "C": "-6",
        "Tmin": "274.15",
        "Tmax": "444.15"
    },
    "AntoineVaporPressure": {
        "eqno": "10",
        "A": "21.112",
        "B": "3452.4",
        "C": "-63.768",
        "Tmin": "357.73",
        "Tmax": "515.67"
    },
    "LiquidViscosityRPS": {
        "eqno": "13",
        "A": "-1.5536",
        "B": "-0.024184",
        "C": "0.000017792",
        "Tmin": "218.15",
        "Tmax": "593.15"
    },
    "COSTALDVolume": "0.550289",
    "DiameterLJ": "7.8299E-10",
    "EnergyLJ": "291.6737",
    "RacketParameter": "0.251687",
    "FullerVolume": "189.3",
    "MatthiasCopemanC2": "1.1157",
    "Parachor": "0.0686",
    "SpecificGravity": "0.720247",
    "Charge": "0",
    "CostaldAcentricFactor": "0.4437",
    "WilsonVolume": "0.179507",
    "UniquacR": "6.523",
    "UniquacQ": "5.476",
    "ApiSrkS2": "0.005435",
    "MatthiasCopemanC3": "-2.3143",
    "ChaoSeaderAcentricFactor": "0.4439",
    "ChaoSeaderSolubilityParameter": "15648.08",
    "ChaoSeaderLiquidVolume": "0.1796",
    "UnifacVLE": {
        "group": "7"
    },
    "UnifacLLE": {
        "group": "7"
    },
    "Asog": {
        "group": "7"
    },
    "GCmethod": {
        "group": "7"
    },
    "Umr": {
        "group": "7"
    },
    "ModifiedUnifac": {
        "group": "7"
    },
    "CAS": "111-84-2",
    "Smiles": "CCCCCCCCC"
}