{
    "LibraryIndex": "81",
    "CompoundID": "N-octacosane",
    "StructureFormula": "CH3(CH2)26CH3",
    "Family": "1",
    "CriticalTemperature": "832",
    "CriticalPressure": "850000",
    "CriticalVolume": "1.63",
    "CriticalCompressibility": "0.200285",
    "NormalBoilingPointTemperature": "704.75",
    "NormalMeltingPointTemperature": "334.55",
    "TriplePointTemperature": "334.35",
    "TriplePointPressure": "0.000104457",
    "MolecularWeight": "394.7601",
    "LiquidVolumeAtNormalBoilingPoint": "0.492645",
    "AcentricityFactor": "1.23752",
    "RadiusOfGyration": "1.033E-09",
    "SolubilityParameter": "15700",
    "DipoleMoment": "0",
    "VanDerWaalsVolume": "0.2933",
    "VanDerWaalsArea": "3.934E+09",
    "HeatOfFormation": "-6.228E+08",
    "GibbsEnergyOfFormation": "1.799E+08",
    "AbsEntropy": "1255000",
    "HeatOfFusionAtMeltingPoint": "6.4643E+07",
    "MatthiasCopemanC1": "2.06",
    "HeatOfCombustion": "-1.722E+10",
    "SolidDensity": {
        "eqno": "100",
        "A": "2.5213",
        "B": "-0.00094263",
        "C": "0",
        "D": "0",
        "E": "0",
        "Tmin": "133.74",
        "Tmax": "334.35"
    },
    "LiquidDensity": {
        "eqno": "105",
        "A": "0.0073167",
        "B": "0.055448",
        "C": "843",
        "D": "0.13236",
        "Tmin": "273.15",
        "Tmax": "832"
    },
    "VaporPressure": {
        "eqno": "101",
        "A": "196.5874",
        "B": "-22285.21",
        "C": "-23.91336",
        "D": "7.155924E-06",
        "E": "2",
        "Tmin": "334.35",
        "Tmax": "832"
    },
    "HeatOfVaporization": {
        "eqno": "106",
        "A": "2.0593E+08",
        "B": "0.90796",
        "C": "0.4061",
        "D": "-1.298",
        "E": "0.44283",
        "Tmin": "334.35",
        "Tmax": "832"
    },
    "SolidHeatCapacityCp": {
        "eqno": "100",
        "A": "-84888",
        "B": "5947.6",
        "C": "-27.952",
        "D": "0.062726",
        "E": "-0.0000046784",
        "Tmin": "80",
        "Tmax": "250"
    },
    "LiquidHeatCapacityCp": {
        "eqno": "16",
        "A": "494250",
        "B": "-131.76",
        "C": "12.406",
        "D": "0.0033619",
        "E": "-0.0000018387",
        "Tmin": "334.35",
        "Tmax": "704.75"
    },
    "IdealGasHeatCapacityCp": {
        "eqno": "16",
        "A": "335140",
        "B": "-505.51",
        "C": "14.268",
        "D": "0.00027376",
        "E": "-9.6008E-08",
        "Tmin": "273",
        "Tmax": "1500"
    },
    "SecondVirialCoefficient": {
        "eqno": "104",
        "A": "1.7412",
        "B": "-1526.5",
        "C": "-1143.7",
        "D": "-7580800",
        "E": "1.9977E+07",
        "Tmin": "416",
        "Tmax": "1500"
    },
    "LiquidViscosity": {
        "eqno": "101",
        "A": "-110.67",
        "B": "6750.2",
        "C": "14.886",
        "D": "-0.000010312",
        "E": "2",
        "Tmin": "334.35",
        "Tmax": "832"
    },
    "VaporViscosity": {
        "eqno": "102",
        "A": "0.0000003028",
        "B": "0.58316",
        "C": "487.28",
        "D": "64252",
        "Tmin": "334.35",
        "Tmax": "1000"
    },
    "LiquidThermalConductivity": {
        "eqno": "16",
        "A": "-0.0095167",
        "B": "-82.828",
        "C": "-0.8204",
        "D": "-0.0023614",
        "E": "5.0131E-07",
        "Tmin": "334.35",
        "Tmax": "704.75"
    },
    "VaporThermalConductivity": {
        "eqno": "102",
        "A": "-190.77",
        "B": "1.0711",
        "C": "-5.355E+09",
        "D": "-7.036E+10",
        "Tmin": "334.35",
        "Tmax": "1000"
    },
    "SurfaceTension": {
        "eqno": "16",
        "A": "-0.063455",
        "B": "-39.315",
        "C": "-1.8285",
        "D": "-0.0015529",
        "E": "5.9113E-07",
        "Tmin": "334.35",
        "Tmax": "832"
    },
    "RPPHeatCapacityCp": {
        "eqno": "4",
        "A": "-11108",
        "B": "2607.2",
        "C": "-1.4263",
        "D": "0.00029964",
        "Tmin": "300",
        "Tmax": "1500"
    },
    "AntoineVaporPressure": {
        "eqno": "10",
        "A": "22.188",
        "B": "5872",
        "C": "-153.33",
        "Tmin": "508.11",
        "Tmax": "753.42"
    },
    "LiquidViscosityRPS": {
        "eqno": "12",
        "A": "-2.5887",
        "B": "-0.0088828",
        "Tmin": "334.35",
        "Tmax": "723.15"
    },
    "COSTALDVolume": "1.897158",
    "DiameterLJ": "1.499321E-09",
    "EnergyLJ": "167.6674",
    "RacketParameter": "0.225555",
    "FullerVolume": "579.18",
    "MatthiasCopemanC2": "0",
    "Parachor": "0.207041",
    "SpecificGravity": "0.804469",
    "Charge": "0",
    "CostaldAcentricFactor": "1.152",
    "WilsonVolume": "0.492645",
    "UniquacR": "19.3366",
    "UniquacQ": "15.736",
    "MatthiasCopemanC3": "0",
    "ChaoSeaderAcentricFactor": "1.23752",
    "ChaoSeaderSolubilityParameter": "15700",
    "ChaoSeaderLiquidVolume": "0.492645",
    "UnifacVLE": {
        "group": "26"
    },
    "UnifacLLE": {
        "group": "26"
    },
    "Asog": {
        "group": "26"
    },
    "GCmethod": {
        "group": "26"
    },
    "Umr": {
        "group": "26"
    },
    "ModifiedUnifac": {
        "group": "26"
    },
    "CAS": "630-02-4",
    "Smiles": "CCCCCCCCCCCCCCCCCCCCCCCCCCCC"
}