{
    "LibraryIndex": "1303",
    "CompoundID": "N-propyl formate",
    "StructureFormula": "HCOOCH2CH2CH3",
    "Family": "55",
    "CriticalTemperature": "538",
    "CriticalPressure": "4060000",
    "CriticalVolume": "0.285",
    "CriticalCompressibility": "0.259",
    "NormalBoilingPointTemperature": "354.69",
    "NormalMeltingPointTemperature": "180.25",
    "TriplePointTemperature": "180.25",
    "TriplePointPressure": "0.211011",
    "MolecularWeight": "88.10513",
    "LiquidVolumeAtNormalBoilingPoint": "0.09794",
    "AcentricityFactor": "0.32",
    "RadiusOfGyration": "3.364E-10",
    "SolubilityParameter": "18470",
    "DipoleMoment": "6.37E-30",
    "VanDerWaalsVolume": "0.05297",
    "VanDerWaalsArea": "7.79E+08",
    "HeatOfFormation": "-4.076E+08",
    "GibbsEnergyOfFormation": "-2.936E+08",
    "AbsEntropy": "367800",
    "HeatOfFusionAtMeltingPoint": "1.32E+07",
    "MatthiasCopemanC1": "0.91319",
    "HeatOfCombustion": "-2.041E+09",
    "SolidDensity": {
        "eqno": "2",
        "A": "14.696",
        "B": "-0.0089769",
        "Tmin": "72.1",
        "Tmax": "180.25"
    },
    "LiquidDensity": {
        "eqno": "105",
        "A": "0.915",
        "B": "0.26134",
        "C": "538",
        "D": "0.28",
        "Tmin": "180.25",
        "Tmax": "538"
    },
    "VaporPressure": {
        "eqno": "101",
        "A": "71.35267",
        "B": "-6244.56",
        "C": "-7.280094",
        "D": "4.220422E-06",
        "E": "2",
        "Tmin": "180.25",
        "Tmax": "538"
    },
    "HeatOfVaporization": {
        "eqno": "106",
        "A": "5.414398E+07",
        "B": "0.597341",
        "C": "-0.589234",
        "D": "1.004533",
        "E": "-0.602007",
        "Tmin": "180.25",
        "Tmax": "538"
    },
    "SolidHeatCapacityCp": {
        "eqno": "1",
        "A": "130880",
        "Tmin": "0",
        "Tmax": "0"
    },
    "LiquidHeatCapacityCp": {
        "eqno": "16",
        "A": "76453",
        "B": "-41.853",
        "C": "10.797",
        "D": "0.0021776",
        "E": "0.0000016375",
        "Tmin": "188.3",
        "Tmax": "433.3"
    },
    "IdealGasHeatCapacityCp": {
        "eqno": "16",
        "A": "48655",
        "B": "-455.54",
        "C": "12.53",
        "D": "0.000075917",
        "E": "-4.246E-09",
        "Tmin": "298.15",
        "Tmax": "1500"
    },
    "SecondVirialCoefficient": {
        "eqno": "104",
        "A": "0.15811",
        "B": "-174.27",
        "C": "-31.648",
        "D": "-4516.6",
        "E": "3566.6",
        "Tmin": "269",
        "Tmax": "1883"
    },
    "LiquidViscosity": {
        "eqno": "101",
        "A": "-51.649",
        "B": "2317.7",
        "C": "6.5556",
        "D": "-0.000012396",
        "E": "2",
        "Tmin": "180.25",
        "Tmax": "438"
    },
    "VaporViscosity": {
        "eqno": "102",
        "A": "6.0899E-07",
        "B": "0.58607",
        "C": "368.57",
        "D": "-171.06",
        "Tmin": "180.25",
        "Tmax": "1000"
    },
    "LiquidThermalConductivity": {
        "eqno": "16",
        "A": "0.017242",
        "B": "-22.474",
        "C": "-1.4478",
        "D": "-0.0011278",
        "E": "-0.0000020716",
        "Tmin": "180",
        "Tmax": "483.15"
    },
    "VaporThermalConductivity": {
        "eqno": "102",
        "A": "661.08",
        "B": "0.99232",
        "C": "5.8449E+09",
        "D": "-9.0597E+10",
        "Tmin": "180.25",
        "Tmax": "1000"
    },
    "SurfaceTension": {
        "eqno": "16",
        "A": "-0.017831",
        "B": "28.209",
        "C": "-2.943",
        "D": "0.00018306",
        "E": "-0.0000042883",
        "Tmin": "180.25",
        "Tmax": "538"
    },
    "RPPHeatCapacityCp": {
        "eqno": "4",
        "A": "-1865.2",
        "B": "457.73",
        "C": "-0.29209",
        "D": "0.000073654",
        "Tmin": "298.15",
        "Tmax": "1500"
    },
    "RelativeStaticPermittivity": {
        "eqno": "120",
        "A": "-6.820192",
        "B": "-3950",
        "C": "-23.7",
        "Tmin": "273.0389",
        "Tmax": "443.0389"
    },
    "AntoineVaporPressure": {
        "eqno": "10",
        "A": "21.052",
        "B": "2837.7",
        "C": "-56.289",
        "Tmin": "322.95",
        "Tmax": "483.15"
    },
    "LiquidViscosityRPS": {
        "eqno": "13",
        "A": "1.9885",
        "B": "-0.052442",
        "C": "0.000067436",
        "Tmin": "180.25",
        "Tmax": "353.97"
    },
    "COSTALDVolume": "0.28231",
    "DiameterLJ": "6.21203E-10",
    "EnergyLJ": "271.378",
    "FullerVolume": "94.3",
    "MatthiasCopemanC2": "0.32658",
    "Parachor": "0.0387",
    "SpecificGravity": "0.910145",
    "Charge": "0",
    "CostaldAcentricFactor": "0.314",
    "WilsonVolume": "0.0979424",
    "UniquacR": "3.4919",
    "UniquacQ": "3.116",
    "MatthiasCopemanC3": "-0.58645",
    "ChaoSeaderAcentricFactor": "0.314",
    "ChaoSeaderSolubilityParameter": "18339.9",
    "ChaoSeaderLiquidVolume": "0.0979424",
    "UnifacVLE": {
        "group": "1"
    },
    "Asog": {
        "group": "1"
    },
    "Umr": {
        "group": "1"
    },
    "ModifiedUnifac": {
        "group": "1"
    },
    "CAS": "110-74-7",
    "Smiles": "CCCOC(=O)"
}