{
    "LibraryIndex": "1803",
    "CompoundID": "N-propyl mercaptan",
    "StructureFormula": "CH3CH2CH2SH",
    "Family": "41",
    "CriticalTemperature": "536",
    "CriticalPressure": "4520000",
    "CriticalVolume": "0.254",
    "CriticalCompressibility": "0.264",
    "NormalBoilingPointTemperature": "340.65",
    "NormalMeltingPointTemperature": "159.85",
    "TriplePointTemperature": "160",
    "TriplePointPressure": "0.0651025",
    "MolecularWeight": "76.16061",
    "LiquidVolumeAtNormalBoilingPoint": "0.0911676",
    "AcentricityFactor": "0.225",
    "RadiusOfGyration": "2.88328E-10",
    "SolubilityParameter": "18020",
    "DipoleMoment": "5.17E-30",
    "VanDerWaalsVolume": "0.04894",
    "VanDerWaalsArea": "7.1E+08",
    "HeatOfFormation": "-6.75E+07",
    "GibbsEnergyOfFormation": "2700000",
    "AbsEntropy": "336400",
    "HeatOfFusionAtMeltingPoint": "5477000",
    "MatthiasCopemanC1": "0.82526",
    "HeatOfCombustion": "-2.345E+09",
    "SolidDensity": {
        "eqno": "2",
        "A": "16.174",
        "B": "-0.011629",
        "C": "0",
        "D": "0",
        "E": "0",
        "Tmin": "63.98",
        "Tmax": "159.95"
    },
    "LiquidDensity": {
        "eqno": "105",
        "A": "0.98491",
        "B": "0.2613",
        "C": "536.61",
        "D": "0.28105",
        "Tmin": "159.95",
        "Tmax": "536.6"
    },
    "VaporPressure": {
        "eqno": "101",
        "A": "81.44938",
        "B": "-6196.556",
        "C": "-9.018418",
        "D": "0.0000073391",
        "E": "2",
        "Tmin": "159.95",
        "Tmax": "536.6"
    },
    "HeatOfVaporization": {
        "eqno": "106",
        "A": "4.183879E+07",
        "B": "-0.0306824",
        "C": "1.010385",
        "D": "-0.640892",
        "E": "-0.0194755",
        "Tmin": "159.95",
        "Tmax": "516.78"
    },
    "SolidHeatCapacityCp": {
        "eqno": "100",
        "A": "-15951",
        "B": "1376.4",
        "C": "-8.0131",
        "D": "0.022215",
        "E": "8.4808E-07",
        "Tmin": "18.62",
        "Tmax": "136.69"
    },
    "LiquidHeatCapacityCp": {
        "eqno": "16",
        "A": "104970",
        "B": "204.83",
        "C": "8.2793",
        "D": "0.0048108",
        "E": "0.0000020317",
        "Tmin": "159.95",
        "Tmax": "440"
    },
    "IdealGasHeatCapacityCp": {
        "eqno": "16",
        "A": "69258",
        "B": "-718.05",
        "C": "12.587",
        "D": "-0.000090812",
        "E": "1.349E-08",
        "Tmin": "200",
        "Tmax": "1500"
    },
    "SecondVirialCoefficient": {
        "eqno": "104",
        "A": "0.16509",
        "B": "-214.88",
        "C": "-18.784",
        "D": "-1765.2",
        "E": "1192.4",
        "Tmin": "266.5",
        "Tmax": "1599"
    },
    "LiquidViscosity": {
        "eqno": "101",
        "A": "-8.6328",
        "B": "806.3",
        "C": "-0.3609",
        "D": "0.0000011977",
        "E": "2",
        "Tmin": "159.95",
        "Tmax": "393"
    },
    "VaporViscosity": {
        "eqno": "102",
        "A": "2.0609E-07",
        "B": "0.72623",
        "C": "217.41",
        "D": "-10810",
        "Tmin": "159.95",
        "Tmax": "1000"
    },
    "LiquidThermalConductivity": {
        "eqno": "16",
        "A": "-0.061115",
        "B": "3.3836",
        "C": "-1.3478",
        "D": "-0.00049487",
        "E": "-0.0000016211",
        "Tmin": "159.95",
        "Tmax": "340.87"
    },
    "VaporThermalConductivity": {
        "eqno": "102",
        "A": "0.0088953",
        "B": "0.51444",
        "C": "2337.9",
        "D": "345110",
        "Tmin": "160",
        "Tmax": "1000"
    },
    "SurfaceTension": {
        "eqno": "16",
        "A": "-0.0074449",
        "B": "194.68",
        "C": "-5.0277",
        "D": "0.0075386",
        "E": "-0.000015012",
        "Tmin": "159.95",
        "Tmax": "516.78"
    },
    "RPPHeatCapacityCp": {
        "eqno": "4",
        "A": "18723",
        "B": "294.36",
        "C": "-0.1308",
        "D": "0.000019418",
        "Tmin": "200",
        "Tmax": "1500"
    },
    "RelativeStaticPermittivity": {
        "eqno": "120",
        "A": "-5.047",
        "B": "-2970",
        "C": "-17.82",
        "Tmin": "270",
        "Tmax": "440"
    },
    "AntoineVaporPressure": {
        "eqno": "10",
        "A": "20.949",
        "B": "2807",
        "C": "-42.818",
        "Tmin": "322.03",
        "Tmax": "477.23"
    },
    "LiquidViscosityRPS": {
        "eqno": "12",
        "A": "-3.3587",
        "B": "-0.015176",
        "Tmin": "159.95",
        "Tmax": "340.87"
    },
    "COSTALDVolume": "0.260086",
    "DiameterLJ": "5.842493E-10",
    "EnergyLJ": "289.6357",
    "RacketParameter": "0.264",
    "FullerVolume": "83.03201",
    "MatthiasCopemanC2": "-0.09328",
    "Parachor": "0.0359885",
    "SpecificGravity": "0.84534",
    "Charge": "0",
    "CostaldAcentricFactor": "0.225",
    "WilsonVolume": "0.0911676",
    "UniquacR": "3.2265",
    "UniquacQ": "2.756",
    "MatthiasCopemanC3": "0.326",
    "ChaoSeaderAcentricFactor": "0.225",
    "ChaoSeaderSolubilityParameter": "18020",
    "ChaoSeaderLiquidVolume": "0.0911676",
    "UnifacVLE": {
        "group": "1"
    },
    "Asog": {
        "group": "1"
    },
    "GCmethod": {
        "group": "1"
    },
    "Umr": {
        "group": "1"
    },
    "ModifiedUnifac": {
        "group": "1"
    },
    "CAS": "107-03-9",
    "Smiles": "CCCS"
}