{
    "LibraryIndex": "114",
    "CompoundID": "N-propylcyclopentane",
    "StructureFormula": "(C5H9)CH2CH2CH3",
    "Family": "6",
    "CriticalTemperature": "596",
    "CriticalPressure": "3020000",
    "CriticalVolume": "0.428",
    "CriticalCompressibility": "0.261",
    "NormalBoilingPointTemperature": "404.11",
    "NormalMeltingPointTemperature": "155.81",
    "TriplePointTemperature": "155.81",
    "TriplePointPressure": "0.0000458874",
    "MolecularWeight": "112.2126",
    "LiquidVolumeAtNormalBoilingPoint": "0.145193",
    "AcentricityFactor": "0.326642",
    "RadiusOfGyration": "4.135E-10",
    "SolubilityParameter": "16360",
    "DipoleMoment": "0",
    "VanDerWaalsVolume": "0.08062",
    "VanDerWaalsArea": "1.022E+09",
    "HeatOfFormation": "-1.481E+08",
    "GibbsEnergyOfFormation": "5.344E+07",
    "AbsEntropy": "414500",
    "HeatOfFusionAtMeltingPoint": "1.003E+07",
    "HeatOfCombustion": "-4.89356E+09",
    "SolidDensity": {
        "eqno": "2",
        "A": "9.906",
        "B": "-0.0070521",
        "Tmin": "62.32",
        "Tmax": "155.81"
    },
    "LiquidDensity": {
        "eqno": "105",
        "A": "0.63061",
        "B": "0.26934",
        "C": "596",
        "D": "0.28169",
        "Tmin": "155.81",
        "Tmax": "572.83"
    },
    "VaporPressure": {
        "eqno": "101",
        "A": "95.39512",
        "B": "-7846.538",
        "C": "-10.93845",
        "D": "7.332031E-06",
        "E": "2",
        "Tmin": "155.81",
        "Tmax": "596"
    },
    "HeatOfVaporization": {
        "eqno": "106",
        "A": "7.088104E+07",
        "B": "1.477689",
        "C": "-1.919309",
        "D": "1.219865",
        "E": "-0.332624",
        "Tmin": "155.81",
        "Tmax": "572.83"
    },
    "SolidHeatCapacityCp": {
        "eqno": "100",
        "A": "-21119",
        "B": "1855.5",
        "C": "-9.5485",
        "D": "0.012148",
        "E": "0.000065366",
        "Tmin": "20.68",
        "Tmax": "155.81"
    },
    "LiquidHeatCapacityCp": {
        "eqno": "16",
        "A": "121270",
        "B": "281.76",
        "C": "6.7151",
        "D": "0.017545",
        "E": "-0.000016082",
        "Tmin": "155.81",
        "Tmax": "404.11"
    },
    "IdealGasHeatCapacityCp": {
        "eqno": "16",
        "A": "82387",
        "B": "-676.01",
        "C": "13.514",
        "D": "-0.00019546",
        "E": "4.9854E-08",
        "Tmin": "200",
        "Tmax": "1500"
    },
    "SecondVirialCoefficient": {
        "eqno": "104",
        "A": "0.2479",
        "B": "-262.92",
        "C": "-60.711",
        "D": "-16273",
        "E": "25758",
        "Tmin": "298",
        "Tmax": "1500"
    },
    "LiquidViscosity": {
        "eqno": "101",
        "A": "-22.725",
        "B": "1601.8",
        "C": "1.7512",
        "D": "2.3108E-07",
        "E": "2",
        "Tmin": "200",
        "Tmax": "404.11"
    },
    "VaporViscosity": {
        "eqno": "102",
        "A": "0.0000028167",
        "B": "0.32978",
        "C": "562.31",
        "D": "4948.1",
        "Tmin": "155.81",
        "Tmax": "1000"
    },
    "LiquidThermalConductivity": {
        "eqno": "16",
        "A": "-0.033741",
        "B": "2.5308",
        "C": "-1.6237",
        "D": "-0.00058186",
        "E": "-0.0000013118",
        "Tmin": "155.81",
        "Tmax": "404.11"
    },
    "VaporThermalConductivity": {
        "eqno": "102",
        "A": "0.000098309",
        "B": "1.0636",
        "C": "611.41",
        "D": "33175",
        "Tmin": "155.81",
        "Tmax": "1000"
    },
    "SurfaceTension": {
        "eqno": "16",
        "A": "-0.014846",
        "B": "15.619",
        "C": "-2.8681",
        "D": "-0.00048241",
        "E": "-0.0000031204",
        "Tmin": "155.81",
        "Tmax": "572.83"
    },
    "RPPHeatCapacityCp": {
        "eqno": "4",
        "A": "-64605.14",
        "B": "897.217",
        "C": "-0.586513",
        "D": "0.000162009",
        "Tmin": "200",
        "Tmax": "1200"
    },
    "AntoineVaporPressure": {
        "eqno": "10",
        "A": "20.961",
        "B": "3302.2",
        "C": "-54.096",
        "Tmin": "358.15",
        "Tmax": "526.5"
    },
    "LiquidViscosityRPS": {
        "eqno": "13",
        "A": "1.393",
        "B": "-0.045558",
        "C": "0.000054398",
        "Tmin": "200",
        "Tmax": "404.11"
    },
    "COSTALDVolume": "0.43959",
    "DiameterLJ": "7.048406E-10",
    "EnergyLJ": "309.076",
    "FullerVolume": "164.16",
    "Parachor": "0.0573",
    "SpecificGravity": "0.779333",
    "Charge": "0",
    "CostaldAcentricFactor": "0.34698",
    "WilsonVolume": "0.145193",
    "UniquacR": "5.3944",
    "UniquacQ": "4.316",
    "ApiSrkS2": "0.012036",
    "ChaoSeaderAcentricFactor": "0.27189",
    "ChaoSeaderSolubilityParameter": "16393.5",
    "ChaoSeaderLiquidVolume": "0.145193",
    "UnifacVLE": {
        "group": "1"
    },
    "UnifacLLE": {
        "group": "1"
    },
    "Asog": {
        "group": "4"
    },
    "GCmethod": {
        "group": "1"
    },
    "Umr": {
        "group": "1"
    },
    "ModifiedUnifac": {
        "group": "1"
    },
    "CAS": "2040-96-2",
    "Smiles": "C1CCCC1(CCC)"
}