{
    "LibraryIndex": "149",
    "CompoundID": "N-propylcyclohexane",
    "StructureFormula": "(C6H11)CH2CH2CH3",
    "Family": "7",
    "CriticalTemperature": "639.15",
    "CriticalPressure": "2807000",
    "CriticalVolume": "0.477",
    "CriticalCompressibility": "0.252",
    "NormalBoilingPointTemperature": "429.897",
    "NormalMeltingPointTemperature": "178.25",
    "TriplePointTemperature": "178.25",
    "TriplePointPressure": "0.000859078",
    "MolecularWeight": "126.2392",
    "LiquidVolumeAtNormalBoilingPoint": "0.159758",
    "AcentricityFactor": "0.259535",
    "RadiusOfGyration": "4.367E-10",
    "SolubilityParameter": "16350",
    "DipoleMoment": "0",
    "VanDerWaalsVolume": "0.09092",
    "VanDerWaalsArea": "1.157E+09",
    "HeatOfFormation": "-1.933E+08",
    "GibbsEnergyOfFormation": "4.738E+07",
    "AbsEntropy": "419530",
    "HeatOfFusionAtMeltingPoint": "1.037E+07",
    "MatthiasCopemanC1": "0.87516",
    "HeatOfCombustion": "-5.47966E+09",
    "SolidDensity": {
        "eqno": "2",
        "A": "8.8087",
        "B": "-0.005494",
        "Tmin": "71.3",
        "Tmax": "178.25"
    },
    "LiquidDensity": {
        "eqno": "105",
        "A": "0.55532",
        "B": "0.26594",
        "C": "639.15",
        "D": "0.29886",
        "Tmin": "178.25",
        "Tmax": "639.15"
    },
    "VaporPressure": {
        "eqno": "101",
        "A": "82.958",
        "B": "-7871.7",
        "C": "-8.8759",
        "D": "0.0000037842",
        "E": "2",
        "Tmin": "178.25",
        "Tmax": "639.15"
    },
    "HeatOfVaporization": {
        "eqno": "106",
        "A": "6.8086E+07",
        "B": "1.2548",
        "C": "-2.1193",
        "D": "2.1809",
        "E": "-0.84474",
        "Tmin": "178.25",
        "Tmax": "639.15"
    },
    "SolidHeatCapacityCp": {
        "eqno": "100",
        "A": "-17515",
        "B": "1789.5",
        "C": "-10.949",
        "D": "0.037847",
        "E": "-0.000022183",
        "Tmin": "20.44",
        "Tmax": "166.83"
    },
    "LiquidHeatCapacityCp": {
        "eqno": "16",
        "A": "47569",
        "B": "39.903",
        "C": "11.009",
        "D": "0.0038436",
        "E": "-0.0000012583",
        "Tmin": "178.25",
        "Tmax": "429.9"
    },
    "IdealGasHeatCapacityCp": {
        "eqno": "16",
        "A": "123230",
        "B": "-835.51",
        "C": "14.003",
        "D": "-0.00055451",
        "E": "1.5912E-07",
        "Tmin": "200",
        "Tmax": "1500"
    },
    "SecondVirialCoefficient": {
        "eqno": "104",
        "A": "0.27598",
        "B": "-333.23",
        "C": "-82.257",
        "D": "-29470",
        "E": "49574",
        "Tmin": "319",
        "Tmax": "1754"
    },
    "LiquidViscosity": {
        "eqno": "101",
        "A": "-18.964",
        "B": "1768.3",
        "C": "1.0133",
        "D": "0.0000031666",
        "E": "2",
        "Tmin": "248.15",
        "Tmax": "429.9"
    },
    "VaporViscosity": {
        "eqno": "102",
        "A": "0.0000010206",
        "B": "0.44533",
        "C": "352.16",
        "D": "7219.8",
        "Tmin": "178.25",
        "Tmax": "1000"
    },
    "LiquidThermalConductivity": {
        "eqno": "16",
        "A": "-0.049742",
        "B": "3.3035",
        "C": "-1.5814",
        "D": "-0.00048571",
        "E": "-0.000001015",
        "Tmin": "178.25",
        "Tmax": "429.9"
    },
    "VaporThermalConductivity": {
        "eqno": "102",
        "A": "0.000001205",
        "B": "1.6222",
        "C": "-42.945",
        "D": "15739",
        "Tmin": "178.25",
        "Tmax": "1000"
    },
    "SurfaceTension": {
        "eqno": "16",
        "A": "-0.011029",
        "B": "31.201",
        "C": "-3.1062",
        "D": "0.00016942",
        "E": "-0.000003854",
        "Tmin": "178.25",
        "Tmax": "639.15"
    },
    "RPPHeatCapacityCp": {
        "eqno": "4",
        "A": "-62027.8",
        "B": "982.0266",
        "C": "-0.560028",
        "D": "0.000114244",
        "Tmin": "200",
        "Tmax": "1200"
    },
    "AntoineVaporPressure": {
        "eqno": "10",
        "A": "20.417",
        "B": "3136.4",
        "C": "-77.095",
        "Tmin": "383.78",
        "Tmax": "566.38"
    },
    "LiquidViscosityRPS": {
        "eqno": "13",
        "A": "1.8674",
        "B": "-0.044293",
        "C": "0.000049254",
        "Tmin": "248.15",
        "Tmax": "429.9"
    },
    "COSTALDVolume": "0.4812",
    "DiameterLJ": "7.622026E-10",
    "EnergyLJ": "292.1178",
    "FullerVolume": "184.68",
    "MatthiasCopemanC2": "0",
    "Parachor": "0.0646",
    "SpecificGravity": "0.796026",
    "Charge": "0",
    "CostaldAcentricFactor": "0.26539",
    "WilsonVolume": "0.159758",
    "UniquacR": "6.068799",
    "UniquacQ": "4.856",
    "MatthiasCopemanC3": "0",
    "ChaoSeaderAcentricFactor": "0.2577",
    "ChaoSeaderSolubilityParameter": "16377.1",
    "ChaoSeaderLiquidVolume": "0.159758",
    "UnifacVLE": {
        "group": "1"
    },
    "UnifacLLE": {
        "group": "1"
    },
    "Asog": {
        "group": "5"
    },
    "GCmethod": {
        "group": "1"
    },
    "Umr": {
        "group": "1"
    },
    "ModifiedUnifac": {
        "group": "1"
    },
    "CAS": "1678-92-8",
    "Smiles": "C1CCCCC1CCC"
}