{
    "LibraryIndex": "919",
    "CompoundID": "Neon",
    "StructureFormula": "Ne",
    "Family": "74",
    "CriticalTemperature": "44.4",
    "CriticalPressure": "2653000",
    "CriticalVolume": "0.0417",
    "CriticalCompressibility": "0.3",
    "NormalBoilingPointTemperature": "27.09",
    "NormalMeltingPointTemperature": "24.55",
    "TriplePointTemperature": "24.56",
    "TriplePointPressure": "43300",
    "MolecularWeight": "20.1797",
    "LiquidVolumeAtNormalBoilingPoint": "0.0167622",
    "AcentricityFactor": "-0.0395988",
    "RadiusOfGyration": "0",
    "SolubilityParameter": "9440",
    "DipoleMoment": "0",
    "VanDerWaalsVolume": "0.01033",
    "VanDerWaalsArea": "1.94E+08",
    "HeatOfFormation": "0",
    "GibbsEnergyOfFormation": "0",
    "AbsEntropy": "146219",
    "HeatOfFusionAtMeltingPoint": "328100",
    "MatthiasCopemanC1": "0.41453",
    "HeatOfCombustion": "0",
    "SolidDensity": {
        "eqno": "2",
        "A": "74.691",
        "B": "-2.7704E-15",
        "Tmin": "0",
        "Tmax": "9.5"
    },
    "LiquidDensity": {
        "eqno": "105",
        "A": "7.3718",
        "B": "0.3067",
        "C": "44.4",
        "D": "0.2786",
        "Tmin": "24.56",
        "Tmax": "44.4"
    },
    "VaporPressure": {
        "eqno": "101",
        "A": "29.459",
        "B": "-269.41",
        "C": "-2.5349",
        "D": "0.00051726",
        "E": "2",
        "Tmin": "23.45",
        "Tmax": "44.4"
    },
    "HeatOfVaporization": {
        "eqno": "106",
        "A": "1420900",
        "B": "-0.63029",
        "C": "-0.0022325",
        "D": "1.6268",
        "E": "-0.7611",
        "Tmin": "24.54",
        "Tmax": "44"
    },
    "LiquidHeatCapacityCp": {
        "eqno": "16",
        "A": "29948",
        "B": "-243.96",
        "C": "32.083",
        "D": "-0.79445",
        "E": "0.01023",
        "Tmin": "24.56",
        "Tmax": "40"
    },
    "IdealGasHeatCapacityCp": {
        "eqno": "16",
        "A": "20786",
        "B": "-1728.5",
        "C": "-21.855",
        "D": "0.0020512",
        "E": "2.1139E-07",
        "Tmin": "100",
        "Tmax": "1500"
    },
    "SecondVirialCoefficient": {
        "eqno": "104",
        "A": "0.015332",
        "B": "-1.1833",
        "C": "-0.0082949",
        "D": "0.0010901",
        "E": "-0.00047018",
        "Tmin": "50",
        "Tmax": "1332"
    },
    "LiquidViscosity": {
        "eqno": "101",
        "A": "-83.002",
        "B": "434.94",
        "C": "18.35",
        "D": "-0.0034996",
        "E": "2",
        "Tmin": "25.09",
        "Tmax": "44.13"
    },
    "VaporViscosity": {
        "eqno": "102",
        "A": "7.6731E-07",
        "B": "0.65634",
        "C": "5.8941",
        "D": "175.84",
        "Tmin": "30",
        "Tmax": "2000"
    },
    "LiquidThermalConductivity": {
        "eqno": "16",
        "A": "-0.49811",
        "B": "-1.8025",
        "C": "-0.49257",
        "D": "0.0090166",
        "E": "-0.00024023",
        "Tmin": "25",
        "Tmax": "44"
    },
    "VaporThermalConductivity": {
        "eqno": "102",
        "A": "0.0011717",
        "B": "0.66099",
        "C": "12.109",
        "D": "-70.155",
        "Tmin": "25",
        "Tmax": "2000"
    },
    "SurfaceTension": {
        "eqno": "16",
        "A": "-0.013077",
        "B": "-9.4638",
        "C": "-2.5288",
        "D": "-0.052153",
        "E": "0.00036172",
        "Tmin": "24",
        "Tmax": "43.36"
    },
    "RPPHeatCapacityCp": {
        "eqno": "4",
        "A": "20772.31",
        "B": "0",
        "C": "0",
        "D": "0",
        "Tmin": "100",
        "Tmax": "1200"
    },
    "RelativeStaticPermittivity": {
        "eqno": "1",
        "A": "1.000127",
        "Tmin": "100",
        "Tmax": "1500"
    },
    "AntoineVaporPressure": {
        "eqno": "10",
        "A": "18.782",
        "B": "165.29",
        "C": "-4.297",
        "Tmin": "26.65",
        "Tmax": "39.18"
    },
    "LiquidViscosityRPS": {
        "eqno": "13",
        "A": "-7.0259",
        "B": "-0.062253",
        "C": "-0.00034802",
        "Tmin": "25.09",
        "Tmax": "44.13"
    },
    "COSTALDVolume": "0.0551691",
    "DiameterLJ": "2.744173E-10",
    "EnergyLJ": "38.01305",
    "FullerVolume": "5.98",
    "MatthiasCopemanC2": "0",
    "Parachor": "0.00444",
    "SpecificGravity": "1.20168",
    "Charge": "0",
    "CostaldAcentricFactor": "-0.0413762",
    "WilsonVolume": "0.0167622",
    "UniquacR": "0.680949",
    "UniquacQ": "0.776",
    "MatthiasCopemanC3": "0",
    "ChaoSeaderAcentricFactor": "-0.0413762",
    "ChaoSeaderSolubilityParameter": "9417.34",
    "ChaoSeaderLiquidVolume": "0.0167622",
    "Umr": {
        "group": "1"
    },
    "CAS": "7440-01-9",
    "Smiles": "[Ne]"
}