{
    "LibraryIndex": "906",
    "CompoundID": "Nitrogen tetroxide",
    "StructureFormula": "O2NNO2",
    "Family": "24",
    "CriticalTemperature": "431.15",
    "CriticalPressure": "1.00312E+07",
    "CriticalVolume": "0.08249",
    "CriticalCompressibility": "0.233",
    "NormalBoilingPointTemperature": "294.3",
    "NormalMeltingPointTemperature": "263.01",
    "TriplePointTemperature": "261.9",
    "TriplePointPressure": "18558.7",
    "MolecularWeight": "92.011",
    "LiquidVolumeAtNormalBoilingPoint": "0.06407",
    "AcentricityFactor": "0.853274",
    "RadiusOfGyration": "2.918E-10",
    "SolubilityParameter": "24123.32",
    "DipoleMoment": "0",
    "VanDerWaalsVolume": "0.03008",
    "VanDerWaalsArea": "4.96E+08",
    "HeatOfFormation": "9162960",
    "GibbsEnergyOfFormation": "9.785E+07",
    "AbsEntropy": "304320",
    "HeatOfFusionAtMeltingPoint": "1.465E+07",
    "MatthiasCopemanC1": "2.29223",
    "HeatOfCombustion": "1983170",
    "SolidDensity": {
        "eqno": "2",
        "A": "21.508",
        "B": "-2.416E-08",
        "C": "0",
        "D": "0",
        "E": "0",
        "Tmin": "78.15",
        "Tmax": "87.65"
    },
    "LiquidDensity": {
        "eqno": "105",
        "A": "2.117",
        "B": "0.32671",
        "C": "431.15",
        "D": "0.20832",
        "Tmin": "261.9",
        "Tmax": "343.15"
    },
    "VaporPressure": {
        "eqno": "101",
        "A": "72.419",
        "B": "-5432",
        "C": "-7.7259",
        "D": "0.00001711",
        "E": "2",
        "Tmin": "252.77",
        "Tmax": "431.15"
    },
    "HeatOfVaporization": {
        "eqno": "106",
        "A": "3.0678E+07",
        "B": "0.17744",
        "C": "-0.16521",
        "D": "-0.11792",
        "E": "0.13193",
        "Tmin": "294.25",
        "Tmax": "303.75"
    },
    "SolidHeatCapacityCp": {
        "eqno": "100",
        "A": "-10482",
        "B": "1238.4",
        "C": "-7.4993",
        "D": "0.025528",
        "E": "-0.000031204",
        "Tmin": "30.18",
        "Tmax": "300"
    },
    "LiquidHeatCapacityCp": {
        "eqno": "16",
        "A": "112080",
        "B": "15.081",
        "C": "5.5387",
        "D": "0.025083",
        "E": "-0.000030338",
        "Tmin": "100",
        "Tmax": "400"
    },
    "IdealGasHeatCapacityCp": {
        "eqno": "16",
        "A": "39950.82",
        "B": "-260.1236",
        "C": "11.41281",
        "D": "0.000224817",
        "E": "-1.049284E-07",
        "Tmin": "50",
        "Tmax": "1500"
    },
    "LiquidViscosity": {
        "eqno": "101",
        "A": "-340.1",
        "B": "10957",
        "C": "53.641",
        "D": "-0.00011365",
        "E": "2",
        "Tmin": "261",
        "Tmax": "400"
    },
    "VaporViscosity": {
        "eqno": "102",
        "A": "0.0000080298",
        "B": "0.2905",
        "C": "212.56",
        "D": "117290",
        "Tmin": "300",
        "Tmax": "1000"
    },
    "LiquidThermalConductivity": {
        "eqno": "16",
        "A": "0.11499",
        "B": "26916",
        "C": "-297.75",
        "D": "1.089",
        "E": "-0.0013592",
        "Tmin": "270",
        "Tmax": "400"
    },
    "VaporThermalConductivity": {
        "eqno": "102",
        "A": "0.000019664",
        "B": "1.1277",
        "C": "265.48",
        "D": "-210280",
        "Tmin": "380",
        "Tmax": "400"
    },
    "RPPHeatCapacityCp": {
        "eqno": "4",
        "A": "28036",
        "B": "221.65",
        "C": "-0.18724",
        "D": "0.000054692",
        "Tmin": "50",
        "Tmax": "1500"
    },
    "RelativeStaticPermittivity": {
        "eqno": "120",
        "A": "-1.96278",
        "B": "-1250",
        "C": "-7.5",
        "Tmin": "268.5945",
        "Tmax": "438.5945"
    },
    "AntoineVaporPressure": {
        "eqno": "10",
        "A": "26.91",
        "B": "5073.2",
        "C": "35.325",
        "Tmin": "263.15",
        "Tmax": "386.61"
    },
    "LiquidViscosityRPS": {
        "eqno": "12",
        "A": "-3.4749",
        "B": "-0.014594",
        "Tmin": "261",
        "Tmax": "400"
    },
    "COSTALDVolume": "0.159449",
    "DiameterLJ": "4.665358E-10",
    "EnergyLJ": "148.6014",
    "RacketParameter": "0.367911",
    "MatthiasCopemanC2": "-4.24638",
    "Parachor": "0.00859559",
    "SpecificGravity": "1.46343",
    "Charge": "0",
    "CostaldAcentricFactor": "0.853274",
    "WilsonVolume": "0.06407",
    "UniquacR": "1.982861",
    "UniquacQ": "1.984",
    "MatthiasCopemanC3": "3.80727",
    "ChaoSeaderAcentricFactor": "0.853274",
    "ChaoSeaderSolubilityParameter": "24123.32",
    "ChaoSeaderLiquidVolume": "0.06407",
    "GCmethod": {
        "group": "1"
    },
    "CAS": "10544-72-6",
    "Smiles": "O=N(=O)N(=O)=O"
}