{
    "LibraryIndex": "1903",
    "CompoundID": "Nitric acid",
    "StructureFormula": "HNO3",
    "Family": "77",
    "CriticalTemperature": "520",
    "CriticalPressure": "6890100",
    "CriticalVolume": "0.145",
    "CriticalCompressibility": "0.231",
    "NormalBoilingPointTemperature": "356.15",
    "NormalMeltingPointTemperature": "231.55",
    "TriplePointTemperature": "231.55",
    "TriplePointPressure": "60.7682",
    "MolecularWeight": "63.01284",
    "LiquidVolumeAtNormalBoilingPoint": "0.041734",
    "AcentricityFactor": "0.714406",
    "RadiusOfGyration": "2.2491E-10",
    "SolubilityParameter": "29610",
    "DipoleMoment": "7.24E-30",
    "VanDerWaalsVolume": "0.02486",
    "VanDerWaalsArea": "3.91E+08",
    "HeatOfFormation": "-1.343E+08",
    "GibbsEnergyOfFormation": "-7.401E+07",
    "AbsEntropy": "266370",
    "HeatOfFusionAtMeltingPoint": "1.047E+07",
    "MatthiasCopemanC1": "2.1998",
    "HeatOfCombustion": "1.34E+07",
    "SolidDensity": {
        "eqno": "2",
        "A": "30.073",
        "B": "-1.103E-09",
        "Tmin": "231.55",
        "Tmax": "241.05"
    },
    "LiquidDensity": {
        "eqno": "105",
        "A": "6.9293",
        "B": "0.47274",
        "C": "520",
        "D": "0.49837",
        "Tmin": "231.55",
        "Tmax": "373.15"
    },
    "VaporPressure": {
        "eqno": "101",
        "A": "26.654",
        "B": "-5017.1",
        "C": "-0.036699",
        "D": "-0.0000064771",
        "E": "2",
        "Tmin": "231.55",
        "Tmax": "376.1"
    },
    "HeatOfVaporization": {
        "eqno": "106",
        "A": "7.01E+07",
        "B": "0.68707",
        "C": "-0.0019914",
        "D": "0.0028792",
        "E": "-0.0014403",
        "Tmin": "231.55",
        "Tmax": "359.15"
    },
    "SolidHeatCapacityCp": {
        "eqno": "100",
        "A": "-15807",
        "B": "1147",
        "C": "-8.2333",
        "D": "0.029082",
        "E": "-0.000034574",
        "Tmin": "22.94",
        "Tmax": "225.42"
    },
    "LiquidHeatCapacityCp": {
        "eqno": "16",
        "A": "111110",
        "B": "-611.57",
        "C": "-2.7202",
        "D": "0.014286",
        "E": "-0.000033905",
        "Tmin": "238.57",
        "Tmax": "302.89"
    },
    "IdealGasHeatCapacityCp": {
        "eqno": "16",
        "A": "32639",
        "B": "-463.06",
        "C": "11.547",
        "D": "-0.00011018",
        "E": "4.1801E-09",
        "Tmin": "100",
        "Tmax": "1500"
    },
    "LiquidViscosity": {
        "eqno": "101",
        "A": "264.29",
        "B": "-7985",
        "C": "-44.099",
        "D": "0.000074947",
        "E": "2",
        "Tmin": "273.15",
        "Tmax": "367.9"
    },
    "VaporViscosity": {
        "eqno": "102",
        "A": "2.2234E-07",
        "B": "0.72283",
        "C": "140.72",
        "D": "-0.0025913",
        "Tmin": "231.55",
        "Tmax": "1000"
    },
    "LiquidThermalConductivity": {
        "eqno": "16",
        "A": "0.15591",
        "B": "-186.43",
        "C": "-2.2714",
        "D": "0.0033214",
        "E": "-0.0000018932",
        "Tmin": "233.15",
        "Tmax": "433.15"
    },
    "VaporThermalConductivity": {
        "eqno": "102",
        "A": "0.00063365",
        "B": "0.72057",
        "C": "645.24",
        "D": "0.005306",
        "Tmin": "231.55",
        "Tmax": "1000"
    },
    "SurfaceTension": {
        "eqno": "16",
        "A": "0.0024017",
        "B": "-360.8",
        "C": "0.85285",
        "D": "-0.011656",
        "E": "0.00000622",
        "Tmin": "273.15",
        "Tmax": "313.15"
    },
    "RPPHeatCapacityCp": {
        "eqno": "4",
        "A": "17609.83",
        "B": "143.171",
        "C": "-0.0711401",
        "D": "0",
        "Tmin": "200",
        "Tmax": "1200"
    },
    "AntoineVaporPressure": {
        "eqno": "10",
        "A": "22.093",
        "B": "3202.8",
        "C": "-52.952",
        "Tmin": "313.15",
        "Tmax": "376.1"
    },
    "LiquidViscosityRPS": {
        "eqno": "13",
        "A": "0.56421",
        "B": "-0.038177",
        "C": "0.000041918",
        "Tmin": "273.15",
        "Tmax": "367.9"
    },
    "COSTALDVolume": "0.13222",
    "DiameterLJ": "5.688965E-10",
    "EnergyLJ": "173.748",
    "FullerVolume": "25.18",
    "MatthiasCopemanC2": "-5.603",
    "Parachor": "0.0187106",
    "SpecificGravity": "1.52364",
    "Charge": "0",
    "CostaldAcentricFactor": "0.71438",
    "WilsonVolume": "0.041734",
    "UniquacR": "1.638761",
    "UniquacQ": "1.564",
    "MatthiasCopemanC3": "8.661",
    "ChaoSeaderAcentricFactor": "0.714406",
    "ChaoSeaderSolubilityParameter": "29605.6",
    "ChaoSeaderLiquidVolume": "0.041734",
    "CAS": "7697-37-2",
    "Smiles": "ON(=O)=O"
}