{
    "LibraryIndex": "912",
    "CompoundID": "Nitric oxide",
    "StructureFormula": "NO",
    "Family": "24",
    "CriticalTemperature": "180",
    "CriticalPressure": "6480000",
    "CriticalVolume": "0.058",
    "CriticalCompressibility": "0.251",
    "NormalBoilingPointTemperature": "121.38",
    "NormalMeltingPointTemperature": "112.15",
    "TriplePointTemperature": "109.5",
    "TriplePointPressure": "21890",
    "MolecularWeight": "30.0061",
    "LiquidVolumeAtNormalBoilingPoint": "0.02344",
    "AcentricityFactor": "0.582",
    "RadiusOfGyration": "5.488E-11",
    "SolubilityParameter": "23120",
    "DipoleMoment": "5.1E-31",
    "VanDerWaalsVolume": "0.0139",
    "VanDerWaalsArea": "2.46487E+08",
    "HeatOfFormation": "9.025E+07",
    "GibbsEnergyOfFormation": "8.657E+07",
    "AbsEntropy": "210600",
    "HeatOfFusionAtMeltingPoint": "2301000",
    "MatthiasCopemanC1": "1.3447",
    "HeatOfCombustion": "-9.02489E+07",
    "SolidDensity": {
        "eqno": "2",
        "A": "52.715",
        "B": "-0.013637",
        "Tmin": "20",
        "Tmax": "109.5"
    },
    "LiquidDensity": {
        "eqno": "105",
        "A": "2.1354",
        "B": "0.19686",
        "C": "180.16",
        "D": "0.15443",
        "Tmin": "109.5",
        "Tmax": "180.15"
    },
    "VaporPressure": {
        "eqno": "101",
        "A": "98.67523",
        "B": "-3011.477",
        "C": "-13.21121",
        "D": "0.000072078",
        "E": "2",
        "Tmin": "106.16",
        "Tmax": "180.15"
    },
    "HeatOfVaporization": {
        "eqno": "106",
        "A": "2.4721E+07",
        "B": "2.2365",
        "C": "-5.8672",
        "D": "6.8169",
        "E": "-2.7529",
        "Tmin": "109.5",
        "Tmax": "176.43"
    },
    "LiquidHeatCapacityCp": {
        "eqno": "16",
        "A": "38756",
        "B": "-323.94",
        "C": "15.685",
        "D": "-0.060412",
        "E": "0.00033434",
        "Tmin": "109.5",
        "Tmax": "150"
    },
    "IdealGasHeatCapacityCp": {
        "eqno": "16",
        "A": "29831.89",
        "B": "-2622.96",
        "C": "12.94433",
        "D": "-0.00260975",
        "E": "6.261468E-07",
        "Tmin": "50",
        "Tmax": "1500"
    },
    "SecondVirialCoefficient": {
        "eqno": "104",
        "A": "0.019784",
        "B": "-8.5287",
        "C": "-0.2596",
        "D": "0.022481",
        "E": "-0.1424",
        "Tmin": "90.15",
        "Tmax": "901.5"
    },
    "LiquidViscosity": {
        "eqno": "101",
        "A": "-50.098",
        "B": "734.63",
        "C": "8.0267",
        "D": "-0.00017996",
        "E": "2",
        "Tmin": "109.15",
        "Tmax": "180.05"
    },
    "VaporViscosity": {
        "eqno": "102",
        "A": "0.0000010289",
        "B": "0.55954",
        "C": "89.353",
        "D": "515.43",
        "Tmin": "110",
        "Tmax": "1773.15"
    },
    "LiquidThermalConductivity": {
        "eqno": "16",
        "A": "-0.85384",
        "B": "4.7868",
        "C": "-0.010049",
        "D": "0.0010454",
        "E": "-0.0000086044",
        "Tmin": "81",
        "Tmax": "176.4"
    },
    "VaporThermalConductivity": {
        "eqno": "102",
        "A": "0.00046657",
        "B": "0.73353",
        "C": "58.917",
        "D": "-625.75",
        "Tmin": "100",
        "Tmax": "750"
    },
    "SurfaceTension": {
        "eqno": "16",
        "A": "-0.0028436",
        "B": "551.06",
        "C": "-17.017",
        "D": "0.13002",
        "E": "-0.00047689",
        "Tmin": "109.5",
        "Tmax": "176.43"
    },
    "RPPHeatCapacityCp": {
        "eqno": "100",
        "A": "37698",
        "B": "-63.556",
        "C": "0.17178",
        "D": "-0.00017926",
        "E": "6.7015E-08",
        "Tmin": "50",
        "Tmax": "1000"
    },
    "AntoineVaporPressure": {
        "eqno": "10",
        "A": "22.389",
        "B": "1041.3",
        "C": "-25.5",
        "Tmin": "110.7",
        "Tmax": "161.56"
    },
    "LiquidViscosityRPS": {
        "eqno": "13",
        "A": "-6.7207",
        "B": "0.0029181",
        "C": "-0.00012236",
        "Tmin": "109.15",
        "Tmax": "180.05"
    },
    "COSTALDVolume": "0.0665",
    "DiameterLJ": "3.794133E-10",
    "EnergyLJ": "81.09816",
    "FullerVolume": "10.65",
    "MatthiasCopemanC2": "0",
    "Parachor": "0.00897",
    "SpecificGravity": "0.0713227",
    "Charge": "0",
    "CostaldAcentricFactor": "0.5896",
    "WilsonVolume": "0.0234267",
    "UniquacR": "0.9163",
    "UniquacQ": "0.9859",
    "MatthiasCopemanC3": "0",
    "ChaoSeaderAcentricFactor": "0.582944",
    "ChaoSeaderSolubilityParameter": "23117.6",
    "ChaoSeaderLiquidVolume": "0.0234267",
    "GCmethod": {
        "group": "1"
    },
    "CAS": "10102-43-9",
    "Smiles": "[N]=O"
}