{
    "LibraryIndex": "899",
    "CompoundID": "Nitrous oxide",
    "StructureFormula": "NON",
    "Family": "24",
    "CriticalTemperature": "309.6",
    "CriticalPressure": "7255000",
    "CriticalVolume": "0.097",
    "CriticalCompressibility": "0.273",
    "NormalBoilingPointTemperature": "184.67",
    "NormalMeltingPointTemperature": "182.33",
    "TriplePointTemperature": "182.3",
    "TriplePointPressure": "87850",
    "MolecularWeight": "44.0128",
    "LiquidVolumeAtNormalBoilingPoint": "0.0359",
    "AcentricityFactor": "0.162",
    "RadiusOfGyration": "9.537E-11",
    "SolubilityParameter": "8275",
    "DipoleMoment": "5.57E-31",
    "VanDerWaalsVolume": "0.0189",
    "VanDerWaalsArea": "3.12637E+08",
    "HeatOfFormation": "8.205E+07",
    "GibbsEnergyOfFormation": "1.0416E+08",
    "AbsEntropy": "219850",
    "HeatOfFusionAtMeltingPoint": "6539000",
    "MatthiasCopemanC1": "0.72733",
    "HeatOfCombustion": "-8.20482E+07",
    "SolidDensity": {
        "eqno": "2",
        "A": "36.489",
        "B": "-3.8239E-08",
        "Tmin": "78.15",
        "Tmax": "87.65"
    },
    "LiquidDensity": {
        "eqno": "105",
        "A": "2.0978",
        "B": "0.2338",
        "C": "309.6",
        "D": "0.25899",
        "Tmin": "182.3",
        "Tmax": "309.55"
    },
    "VaporPressure": {
        "eqno": "101",
        "A": "50.69662",
        "B": "-2836.473",
        "C": "-4.609937",
        "D": "7.237315E-06",
        "E": "2",
        "Tmin": "179.17",
        "Tmax": "309.57"
    },
    "HeatOfVaporization": {
        "eqno": "106",
        "A": "2.585559E+07",
        "B": "0.982629",
        "C": "-2.292314",
        "D": "3.369827",
        "E": "-1.65657",
        "Tmin": "182.3",
        "Tmax": "309.57"
    },
    "SolidHeatCapacityCp": {
        "eqno": "100",
        "A": "-15429",
        "B": "1311.3",
        "C": "-11.544",
        "D": "0.047904",
        "E": "-0.000064108",
        "Tmin": "30",
        "Tmax": "180"
    },
    "LiquidHeatCapacityCp": {
        "eqno": "16",
        "A": "72525",
        "B": "232.93",
        "C": "2.2666",
        "D": "0.037329",
        "E": "-0.000055304",
        "Tmin": "182.3",
        "Tmax": "200"
    },
    "IdealGasHeatCapacityCp": {
        "eqno": "16",
        "A": "28650",
        "B": "-400.03",
        "C": "10.5",
        "D": "0.00014292",
        "E": "-6.728E-08",
        "Tmin": "100",
        "Tmax": "1500"
    },
    "SecondVirialCoefficient": {
        "eqno": "104",
        "A": "0.043828",
        "B": "-34.614",
        "C": "-1.5496",
        "D": "-7.0657",
        "E": "0.77444",
        "Tmin": "154.79",
        "Tmax": "1773.15"
    },
    "LiquidViscosity": {
        "eqno": "101",
        "A": "-10.876",
        "B": "472.99",
        "C": "0.14659",
        "D": "-0.000013815",
        "E": "2",
        "Tmin": "210",
        "Tmax": "283.09"
    },
    "VaporViscosity": {
        "eqno": "102",
        "A": "0.0000020512",
        "B": "0.47044",
        "C": "305.02",
        "D": "-521.81",
        "Tmin": "180",
        "Tmax": "1773.15"
    },
    "LiquidThermalConductivity": {
        "eqno": "16",
        "A": "0.10112",
        "B": "-5274.1",
        "C": "16.778",
        "D": "-0.037729",
        "E": "-0.000048678",
        "Tmin": "277.59",
        "Tmax": "287.09"
    },
    "VaporThermalConductivity": {
        "eqno": "102",
        "A": "0.001121",
        "B": "0.66298",
        "C": "524.68",
        "D": "7332.7",
        "Tmin": "180",
        "Tmax": "1000"
    },
    "SurfaceTension": {
        "eqno": "16",
        "A": "-0.012364",
        "B": "-124.21",
        "C": "-1.4299",
        "D": "-0.0041148",
        "E": "-0.000013653",
        "Tmin": "173.15",
        "Tmax": "309.57"
    },
    "RPPHeatCapacityCp": {
        "eqno": "100",
        "A": "26315",
        "B": "28.278",
        "C": "0.08223",
        "D": "-0.00015631",
        "E": "7.3999E-08",
        "Tmin": "50",
        "Tmax": "1000"
    },
    "RelativeStaticPermittivity": {
        "eqno": "120",
        "A": "-1.381181",
        "B": "-800",
        "C": "-4.8",
        "Tmin": "254.15",
        "Tmax": "424.15"
    },
    "AntoineVaporPressure": {
        "eqno": "10",
        "A": "20.613",
        "B": "1311.9",
        "C": "-40.474",
        "Tmin": "187.55",
        "Tmax": "276.08"
    },
    "LiquidViscosityRPS": {
        "eqno": "13",
        "A": "-4.4961",
        "B": "-0.022349",
        "C": "0.000016718",
        "Tmin": "210",
        "Tmax": "283.09"
    },
    "COSTALDVolume": "0.0979999",
    "DiameterLJ": "4.071681E-10",
    "EnergyLJ": "188.7555",
    "FullerVolume": "35.9",
    "MatthiasCopemanC2": "-0.64292",
    "Parachor": "0.0142",
    "SpecificGravity": "0.81688",
    "Charge": "0",
    "CostaldAcentricFactor": "0.1691",
    "WilsonVolume": "0.036002",
    "UniquacR": "1.238",
    "UniquacQ": "1.2442",
    "MatthiasCopemanC3": "2.9128",
    "ChaoSeaderAcentricFactor": "0.140894",
    "ChaoSeaderSolubilityParameter": "20308",
    "ChaoSeaderLiquidVolume": "0.036002",
    "GCmethod": {
        "group": "1"
    },
    "CAS": "10024-97-2",
    "Smiles": "[O-][N+]#N"
}