{
    "LibraryIndex": "905",
    "CompoundID": "Nitrogen",
    "StructureFormula": "N2",
    "Family": "74",
    "CriticalTemperature": "126.2",
    "CriticalPressure": "3398000",
    "CriticalVolume": "0.0901",
    "CriticalCompressibility": "0.289",
    "NormalBoilingPointTemperature": "77.35",
    "NormalMeltingPointTemperature": "63.149",
    "TriplePointTemperature": "63.149",
    "TriplePointPressure": "12520",
    "MolecularWeight": "28.0134",
    "LiquidVolumeAtNormalBoilingPoint": "0.03484",
    "AcentricityFactor": "0.037",
    "RadiusOfGyration": "5.471E-11",
    "SolubilityParameter": "9082",
    "DipoleMoment": "0",
    "VanDerWaalsVolume": "0.0158",
    "VanDerWaalsArea": "2.72E+08",
    "HeatOfFormation": "0",
    "GibbsEnergyOfFormation": "0",
    "AbsEntropy": "191500",
    "HeatOfFusionAtMeltingPoint": "720000",
    "MatthiasCopemanC1": "0.54268",
    "HeatOfCombustion": "0",
    "SolidDensity": {
        "eqno": "2",
        "A": "37.87",
        "B": "-0.06027",
        "Tmin": "20.65",
        "Tmax": "63.15"
    },
    "LiquidDensity": {
        "eqno": "105",
        "A": "2.435",
        "B": "0.25137",
        "C": "126.27",
        "D": "0.249",
        "Tmin": "63.15",
        "Tmax": "126.26"
    },
    "VaporPressure": {
        "eqno": "101",
        "A": "42.32946",
        "B": "-965.9771",
        "C": "-4.321774",
        "D": "0.0000797271",
        "E": "2",
        "Tmin": "60.81",
        "Tmax": "126.26"
    },
    "HeatOfVaporization": {
        "eqno": "106",
        "A": "2.7284E+07",
        "B": "7.8021",
        "C": "-19.125",
        "D": "19.518",
        "E": "-7.5428",
        "Tmin": "63.15",
        "Tmax": "126.26"
    },
    "SolidHeatCapacityCp": {
        "eqno": "100",
        "A": "383890",
        "B": "-28798",
        "C": "875.74",
        "D": "-11.589",
        "E": "0.057106",
        "Tmin": "32.8",
        "Tmax": "63"
    },
    "LiquidHeatCapacityCp": {
        "eqno": "16",
        "A": "55135",
        "B": "217.45",
        "C": "-0.9071",
        "D": "0.05327",
        "E": "0.00024166",
        "Tmin": "63.15",
        "Tmax": "115"
    },
    "IdealGasHeatCapacityCp": {
        "eqno": "16",
        "A": "29103.63",
        "B": "-2305.946",
        "C": "11.31935",
        "D": "-0.00100557",
        "E": "1.706099E-07",
        "Tmin": "50",
        "Tmax": "1500"
    },
    "SecondVirialCoefficient": {
        "eqno": "104",
        "A": "0.043512",
        "B": "-13.524",
        "C": "-0.091223",
        "D": "0.10229",
        "E": "-0.078721",
        "Tmin": "90",
        "Tmax": "1400"
    },
    "LiquidViscosity": {
        "eqno": "101",
        "A": "3.4358",
        "B": "-24.706",
        "C": "-2.6748",
        "D": "-0.000041603",
        "E": "2",
        "Tmin": "63.15",
        "Tmax": "125"
    },
    "VaporViscosity": {
        "eqno": "102",
        "A": "4.6051E-07",
        "B": "0.65049",
        "C": "5.8019",
        "D": "2822.7",
        "Tmin": "63.15",
        "Tmax": "1970"
    },
    "LiquidThermalConductivity": {
        "eqno": "16",
        "A": "-0.21743",
        "B": "10.383",
        "C": "-1.0631",
        "D": "0.00036245",
        "E": "-0.000023265",
        "Tmin": "60",
        "Tmax": "124"
    },
    "VaporThermalConductivity": {
        "eqno": "102",
        "A": "0.0003395",
        "B": "0.76921",
        "C": "19.592",
        "D": "293.93",
        "Tmin": "50",
        "Tmax": "2000"
    },
    "SurfaceTension": {
        "eqno": "16",
        "A": "-0.0025409",
        "B": "96.836",
        "C": "-7.6473",
        "D": "0.05313",
        "E": "-0.00036553",
        "Tmin": "63.15",
        "Tmax": "126.2"
    },
    "RPPHeatCapacityCp": {
        "eqno": "100",
        "A": "29425",
        "B": "-2.1701",
        "C": "0.00058201",
        "D": "0.000013054",
        "E": "-8.2313E-09",
        "Tmin": "50",
        "Tmax": "1000"
    },
    "RelativeStaticPermittivity": {
        "eqno": "1",
        "A": "1.00058",
        "Tmin": "100",
        "Tmax": "1500"
    },
    "AntoineVaporPressure": {
        "eqno": "10",
        "A": "20.455",
        "B": "682.85",
        "C": "-0.86615",
        "Tmin": "76",
        "Tmax": "112.93"
    },
    "LiquidViscosityRPS": {
        "eqno": "13",
        "A": "-5.5907",
        "B": "-0.045786",
        "C": "0.000062538",
        "Tmin": "63.15",
        "Tmax": "125"
    },
    "COSTALDVolume": "0.0901499",
    "DiameterLJ": "3.710301E-10",
    "EnergyLJ": "94.45061",
    "RacketParameter": "0.2906",
    "FullerVolume": "18.5",
    "MatthiasCopemanC2": "0",
    "Parachor": "0.0107",
    "SpecificGravity": "0.806374",
    "Charge": "0",
    "CostaldAcentricFactor": "0.0357998",
    "WilsonVolume": "0.0346723",
    "UniquacR": "1.0415",
    "UniquacQ": "1.088",
    "ApiSrkS2": "-0.011016",
    "MatthiasCopemanC3": "0",
    "ChaoSeaderAcentricFactor": "0.045",
    "ChaoSeaderSolubilityParameter": "9081.94",
    "ChaoSeaderLiquidVolume": "0.0346723",
    "GCmethod": {
        "group": "1"
    },
    "Umr": {
        "group": "1"
    },
    "CAS": "7727-37-9",
    "Smiles": "N#N"
}