{
    "LibraryIndex": "900",
    "CompoundID": "Nitrogen dioxide",
    "StructureFormula": "ONO",
    "Family": "24",
    "CriticalTemperature": "431.15",
    "CriticalPressure": "1.01325E+07",
    "CriticalVolume": "0.08249",
    "CriticalCompressibility": "0.233",
    "NormalBoilingPointTemperature": "294.15",
    "NormalMeltingPointTemperature": "261.9",
    "TriplePointTemperature": "261.9",
    "TriplePointPressure": "18728.3",
    "MolecularWeight": "46.0055",
    "LiquidVolumeAtNormalBoilingPoint": "0.031997",
    "AcentricityFactor": "0.851088",
    "RadiusOfGyration": "1.431E-10",
    "SolubilityParameter": "33390",
    "DipoleMoment": "1.05E-30",
    "VanDerWaalsVolume": "0.01598",
    "VanDerWaalsArea": "2.827E+08",
    "HeatOfFormation": "3.318E+07",
    "GibbsEnergyOfFormation": "5.1328E+07",
    "AbsEntropy": "239920",
    "HeatOfFusionAtMeltingPoint": "1.465E+07",
    "MatthiasCopemanC1": "2.21704",
    "HeatOfCombustion": "-3.30954E+07",
    "LiquidDensity": {
        "eqno": "105",
        "A": "2.2179",
        "B": "0.22994",
        "C": "431.38",
        "D": "0.19006",
        "Tmin": "261.9",
        "Tmax": "431.37"
    },
    "VaporPressure": {
        "eqno": "101",
        "A": "18.404",
        "B": "-3508.6",
        "C": "0.81255",
        "D": "0.0000049983",
        "E": "2",
        "Tmin": "252.77",
        "Tmax": "431.37"
    },
    "HeatOfVaporization": {
        "eqno": "106",
        "A": "5.37E+07",
        "B": "0.3",
        "C": "0",
        "D": "0",
        "E": "0",
        "Tmin": "291.15",
        "Tmax": "431.15"
    },
    "SolidHeatCapacityCp": {
        "eqno": "100",
        "A": "14.968",
        "B": "997.55",
        "C": "-5.6124",
        "D": "0.014033",
        "E": "-0.000013158",
        "Tmin": "261.95",
        "Tmax": "271.45"
    },
    "LiquidHeatCapacityCp": {
        "eqno": "16",
        "A": "77435",
        "B": "432.69",
        "C": "5.3737",
        "D": "0.020804",
        "E": "-0.000021695",
        "Tmin": "261",
        "Tmax": "400"
    },
    "IdealGasHeatCapacityCp": {
        "eqno": "16",
        "A": "32962.96",
        "B": "-578.7755",
        "C": "10.44921",
        "D": "0.0000793322",
        "E": "-5.181036E-08",
        "Tmin": "50",
        "Tmax": "1500"
    },
    "LiquidViscosity": {
        "eqno": "101",
        "A": "-311.49",
        "B": "10041",
        "C": "49.027",
        "D": "-0.00010518",
        "E": "2",
        "Tmin": "253.15",
        "Tmax": "400"
    },
    "VaporViscosity": {
        "eqno": "102",
        "A": "1.2078E-08",
        "B": "1.1399",
        "C": "-382.56",
        "D": "78187",
        "Tmin": "300",
        "Tmax": "1000"
    },
    "LiquidThermalConductivity": {
        "eqno": "16",
        "A": "0.11611",
        "B": "127610",
        "C": "-1409.1",
        "D": "5.1777",
        "E": "-0.0063738",
        "Tmin": "270",
        "Tmax": "350"
    },
    "VaporThermalConductivity": {
        "eqno": "102",
        "A": "0.070851",
        "B": "-0.2143",
        "C": "-1258",
        "D": "429500",
        "Tmin": "420",
        "Tmax": "1000"
    },
    "SurfaceTension": {
        "eqno": "16",
        "A": "-0.093346",
        "B": "-80.091",
        "C": "-1.095",
        "D": "-0.0026037",
        "E": "2.0771E-07",
        "Tmin": "261.9",
        "Tmax": "422.24"
    },
    "RPPHeatCapacityCp": {
        "eqno": "4",
        "A": "29053.13",
        "B": "34.51315",
        "C": "-0.00987307",
        "D": "-7.237807E-07",
        "Tmin": "50",
        "Tmax": "1500"
    },
    "AntoineVaporPressure": {
        "eqno": "10",
        "A": "27.248",
        "B": "5290",
        "C": "42.102",
        "Tmin": "264.04",
        "Tmax": "386.61"
    },
    "LiquidViscosityRPS": {
        "eqno": "13",
        "A": "-8.1207",
        "B": "0.013877",
        "C": "-0.000042964",
        "Tmin": "253.15",
        "Tmax": "400"
    },
    "COSTALDVolume": "0.0945914",
    "DiameterLJ": "4.665358E-10",
    "EnergyLJ": "148.6014",
    "FullerVolume": "16.76",
    "MatthiasCopemanC2": "-2.9491",
    "Parachor": "0.0129",
    "SpecificGravity": "1.46976",
    "Charge": "0",
    "CostaldAcentricFactor": "0.86339",
    "WilsonVolume": "0.0317854",
    "UniquacR": "1.053395",
    "UniquacQ": "1.1308",
    "MatthiasCopemanC3": "-1.29742",
    "ChaoSeaderAcentricFactor": "0.851088",
    "ChaoSeaderSolubilityParameter": "33494.8",
    "ChaoSeaderLiquidVolume": "0.0317854",
    "GCmethod": {
        "group": "1"
    },
    "CAS": "10102-44-0",
    "Smiles": "O=[N]=O"
}