{
    "LibraryIndex": "904",
    "CompoundID": "Nitrogen trioxide",
    "StructureFormula": "O2NNO",
    "Family": "24",
    "CriticalTemperature": "451",
    "CriticalPressure": "6990000",
    "CriticalVolume": "0.195",
    "CriticalCompressibility": "0.386",
    "NormalBoilingPointTemperature": "276.65",
    "NormalMeltingPointTemperature": "171.15",
    "TriplePointTemperature": "172.45",
    "TriplePointPressure": "15.1767",
    "MolecularWeight": "76.0116",
    "LiquidVolumeAtNormalBoilingPoint": "0.0531885",
    "AcentricityFactor": "0.431227",
    "RadiusOfGyration": "2.346E-10",
    "SolubilityParameter": "32600",
    "DipoleMoment": "7.078E-30",
    "VanDerWaalsVolume": "0.026378",
    "VanDerWaalsArea": "4.407E+08",
    "HeatOfFormation": "8.2843E+07",
    "GibbsEnergyOfFormation": "1.39727E+08",
    "AbsEntropy": "308450",
    "HeatOfFusionAtMeltingPoint": "0",
    "HeatOfCombustion": "-8.2843E+07",
    "SolidDensity": {
        "eqno": "2",
        "A": "23.709",
        "B": "-0.0033974",
        "C": "0",
        "D": "0",
        "E": "0",
        "Tmin": "20.15",
        "Tmax": "170"
    },
    "LiquidDensity": {
        "eqno": "105",
        "A": "2.7664",
        "B": "0.37489",
        "C": "451",
        "D": "0.040027",
        "E": "0",
        "Tmin": "243.15",
        "Tmax": "275.15"
    },
    "VaporPressure": {
        "eqno": "101",
        "A": "137.96",
        "B": "-7584.5",
        "C": "-17.9",
        "D": "0.000022014",
        "E": "2",
        "Tmin": "170",
        "Tmax": "425"
    },
    "HeatOfVaporization": {
        "eqno": "106",
        "A": "6.1243E+07",
        "B": "0.17457",
        "C": "-0.20195",
        "D": "-0.16172",
        "E": "0.24757",
        "Tmin": "246",
        "Tmax": "255.5"
    },
    "IdealGasHeatCapacityCp": {
        "eqno": "16",
        "A": "37365",
        "B": "-232.94",
        "C": "10.977",
        "D": "0.00031169",
        "E": "-1.1931E-07",
        "Tmin": "100",
        "Tmax": "1500"
    },
    "VaporViscosity": {
        "eqno": "2",
        "A": "-3.7052E-07",
        "B": "2.2773E-08",
        "Tmin": "276.65",
        "Tmax": "1000"
    },
    "RPPHeatCapacityCp": {
        "eqno": "4",
        "A": "29751",
        "B": "158.25",
        "C": "-0.13576",
        "D": "0.000041065",
        "Tmin": "100",
        "Tmax": "1500"
    },
    "AntoineVaporPressure": {
        "eqno": "10",
        "A": "22.203",
        "B": "2466.4",
        "C": "-44.307",
        "Tmin": "272",
        "Tmax": "399.5"
    },
    "COSTALDVolume": "0.139908",
    "DiameterLJ": "3.391187E-10",
    "EnergyLJ": "956.7623",
    "RacketParameter": "0.268002",
    "Parachor": "0.0111154",
    "Charge": "0",
    "CostaldAcentricFactor": "0.431227",
    "WilsonVolume": "0.0531885",
    "UniquacR": "1.738827",
    "UniquacQ": "1.7628",
    "ChaoSeaderAcentricFactor": "0.431227",
    "ChaoSeaderSolubilityParameter": "32600",
    "ChaoSeaderLiquidVolume": "0.0531885",
    "CAS": "10544-73-7",
    "Smiles": "O=N(=O)N=O"
}