{
    "LibraryIndex": "1760",
    "CompoundID": "Nitromethane",
    "StructureFormula": "CH3NO2",
    "Family": "39",
    "CriticalTemperature": "588",
    "CriticalPressure": "5870000",
    "CriticalVolume": "0.173",
    "CriticalCompressibility": "0.208",
    "NormalBoilingPointTemperature": "374.35",
    "NormalMeltingPointTemperature": "244.6",
    "TriplePointTemperature": "244.6",
    "TriplePointPressure": "146.529",
    "MolecularWeight": "61.04002",
    "LiquidVolumeAtNormalBoilingPoint": "0.05396",
    "AcentricityFactor": "0.348026",
    "RadiusOfGyration": "2.3544E-10",
    "SolubilityParameter": "25700",
    "DipoleMoment": "1.15E-29",
    "VanDerWaalsVolume": "0.03047",
    "VanDerWaalsArea": "4.69E+08",
    "HeatOfFormation": "-7.48E+07",
    "GibbsEnergyOfFormation": "-6940000",
    "AbsEntropy": "275000",
    "HeatOfFusionAtMeltingPoint": "9703000",
    "MatthiasCopemanC1": "1.13877",
    "HeatOfCombustion": "-6.432E+08",
    "SolidDensity": {
        "eqno": "2",
        "A": "24.924",
        "B": "-0.011419",
        "C": "0",
        "D": "0",
        "E": "0",
        "Tmin": "97.84",
        "Tmax": "244.6"
    },
    "LiquidDensity": {
        "eqno": "105",
        "A": "1.2195",
        "B": "0.22476",
        "C": "588.16",
        "D": "0.2787",
        "Tmin": "244.6",
        "Tmax": "588.15"
    },
    "VaporPressure": {
        "eqno": "101",
        "A": "93.27",
        "B": "-7345.1",
        "C": "-10.689",
        "D": "0.0000086998",
        "E": "2",
        "Tmin": "244.15",
        "Tmax": "588.15"
    },
    "HeatOfVaporization": {
        "eqno": "106",
        "A": "4.160998E+07",
        "B": "-0.662124",
        "C": "2.67118",
        "D": "-2.702805",
        "E": "0.931262",
        "Tmin": "244.6",
        "Tmax": "570.07"
    },
    "SolidHeatCapacityCp": {
        "eqno": "100",
        "A": "24756",
        "B": "206.1",
        "C": "2.378",
        "D": "-0.021867",
        "E": "0.000053521",
        "Tmin": "59.98",
        "Tmax": "235.46"
    },
    "LiquidHeatCapacityCp": {
        "eqno": "16",
        "A": "80588",
        "B": "345.48",
        "C": "6.7575",
        "D": "0.0084794",
        "E": "-0.0000031326",
        "Tmin": "244.6",
        "Tmax": "473.15"
    },
    "IdealGasHeatCapacityCp": {
        "eqno": "16",
        "A": "38681",
        "B": "-615.84",
        "C": "11.895",
        "D": "0.000023118",
        "E": "-2.9677E-08",
        "Tmin": "150",
        "Tmax": "1500"
    },
    "SecondVirialCoefficient": {
        "eqno": "104",
        "A": "0.09758",
        "B": "-168.84",
        "C": "-42.71",
        "D": "-11412",
        "E": "-9713.2",
        "Tmin": "294",
        "Tmax": "1500"
    },
    "LiquidViscosity": {
        "eqno": "101",
        "A": "-10.411",
        "B": "1047.6",
        "C": "-0.095445",
        "D": "6.9198E-07",
        "E": "2",
        "Tmin": "244.6",
        "Tmax": "454"
    },
    "VaporViscosity": {
        "eqno": "102",
        "A": "4.2141E-07",
        "B": "0.64539",
        "C": "383.4",
        "D": "-1344.5",
        "Tmin": "244.6",
        "Tmax": "1000"
    },
    "LiquidThermalConductivity": {
        "eqno": "16",
        "A": "0.050889",
        "B": "-150.55",
        "C": "-0.2952",
        "D": "-0.0028403",
        "E": "-0.0000022109",
        "Tmin": "244.6",
        "Tmax": "374.35"
    },
    "VaporThermalConductivity": {
        "eqno": "102",
        "A": "0.000031393",
        "B": "1.1117",
        "C": "-91.903",
        "D": "128140",
        "Tmin": "244.6",
        "Tmax": "1000"
    },
    "SurfaceTension": {
        "eqno": "16",
        "A": "-0.04012",
        "B": "-18.606",
        "C": "-1.9227",
        "D": "-0.0017487",
        "E": "-7.2781E-07",
        "Tmin": "244.6",
        "Tmax": "570.07"
    },
    "RPPHeatCapacityCp": {
        "eqno": "100",
        "A": "34888",
        "B": "-9.1625",
        "C": "0.42886",
        "D": "-0.00055882",
        "E": "2.2116E-07",
        "Tmin": "50",
        "Tmax": "1000"
    },
    "RelativeStaticPermittivity": {
        "eqno": "120",
        "A": "-17.75919",
        "B": "-10000",
        "C": "-118.2",
        "Tmin": "274.15",
        "Tmax": "444.15"
    },
    "AntoineVaporPressure": {
        "eqno": "10",
        "A": "21.699",
        "B": "3368.7",
        "C": "-43.222",
        "Tmin": "353.09",
        "Tmax": "515.82"
    },
    "LiquidViscosityRPS": {
        "eqno": "12",
        "A": "-4.171",
        "B": "-0.01068",
        "Tmin": "244.6",
        "Tmax": "374.35"
    },
    "COSTALDVolume": "0.16151",
    "DiameterLJ": "6.84307E-10",
    "EnergyLJ": "134.6848",
    "RacketParameter": "0.22211",
    "FullerVolume": "39.59",
    "MatthiasCopemanC2": "-0.9816",
    "Parachor": "0.0238563",
    "SpecificGravity": "1.141871",
    "Charge": "0",
    "CostaldAcentricFactor": "0.348026",
    "WilsonVolume": "0.05396",
    "UniquacR": "2.0086",
    "UniquacQ": "1.868",
    "MatthiasCopemanC3": "1.02291",
    "ChaoSeaderAcentricFactor": "0.348026",
    "ChaoSeaderSolubilityParameter": "257",
    "UnifacVLE": {
        "group": "1"
    },
    "UnifacLLE": {
        "group": "1"
    },
    "Asog": {
        "group": "1"
    },
    "Umr": {
        "group": "1"
    },
    "ModifiedUnifac": {
        "group": "1"
    },
    "CAS": "75-52-5",
    "Smiles": "CN(=O)=O"
}