{
    "LibraryIndex": "1182",
    "CompoundID": "O-cresol",
    "StructureFormula": "CH3(C6H4)OH",
    "Family": "48",
    "CriticalTemperature": "697.6",
    "CriticalPressure": "5000000",
    "CriticalVolume": "0.282",
    "CriticalCompressibility": "0.243",
    "NormalBoilingPointTemperature": "464.17",
    "NormalMeltingPointTemperature": "304.19",
    "TriplePointTemperature": "304.19",
    "TriplePointPressure": "65.3261",
    "MolecularWeight": "108.1378",
    "LiquidVolumeAtNormalBoilingPoint": "0.10364",
    "AcentricityFactor": "0.435",
    "RadiusOfGyration": "3.787E-10",
    "SolubilityParameter": "22870",
    "DipoleMoment": "4.84E-30",
    "VanDerWaalsVolume": "0.06503",
    "VanDerWaalsArea": "8.18E+08",
    "HeatOfFormation": "-1.2857E+08",
    "GibbsEnergyOfFormation": "-3.543E+07",
    "AbsEntropy": "352590",
    "HeatOfFusionAtMeltingPoint": "1.582E+07",
    "MatthiasCopemanC1": "1.2881",
    "HeatOfCombustion": "-3.528E+09",
    "SolidDensity": {
        "eqno": "2",
        "A": "4.5708",
        "B": "0.019375",
        "Tmin": "293.15",
        "Tmax": "307.65"
    },
    "LiquidDensity": {
        "eqno": "105",
        "A": "1.1115",
        "B": "0.30952",
        "C": "697.6",
        "D": "0.31161",
        "Tmin": "273.15",
        "Tmax": "676.85"
    },
    "VaporPressure": {
        "eqno": "101",
        "A": "140.51",
        "B": "-11819",
        "C": "-17.163",
        "D": "0.0000087043",
        "E": "2",
        "Tmin": "303.15",
        "Tmax": "697.65"
    },
    "HeatOfVaporization": {
        "eqno": "106",
        "A": "9.9721E+07",
        "B": "1.0333",
        "C": "0.08043",
        "D": "-1.2193",
        "E": "0.58124",
        "Tmin": "304.19",
        "Tmax": "697.65"
    },
    "SolidHeatCapacityCp": {
        "eqno": "100",
        "A": "-8031.4",
        "B": "1109.1",
        "C": "-6.0897",
        "D": "0.022423",
        "E": "-0.000027975",
        "Tmin": "10",
        "Tmax": "304.19"
    },
    "LiquidHeatCapacityCp": {
        "eqno": "16",
        "A": "146600",
        "B": "-116.23",
        "C": "11.009",
        "D": "0.0034596",
        "E": "-0.0000033446",
        "Tmin": "304.19",
        "Tmax": "400"
    },
    "IdealGasHeatCapacityCp": {
        "eqno": "16",
        "A": "64367",
        "B": "-535.92",
        "C": "12.871",
        "D": "-0.000033383",
        "E": "-2.2759E-09",
        "Tmin": "150",
        "Tmax": "1500"
    },
    "SecondVirialCoefficient": {
        "eqno": "104",
        "A": "0.19264",
        "B": "-372.93",
        "C": "-69.055",
        "D": "-19860",
        "E": "28563",
        "Tmin": "313.15",
        "Tmax": "1500"
    },
    "LiquidViscosity": {
        "eqno": "101",
        "A": "-455.0775",
        "B": "20670.83",
        "C": "67.87773",
        "D": "-0.0000660983",
        "E": "2",
        "Tmin": "293.15",
        "Tmax": "558.04"
    },
    "VaporViscosity": {
        "eqno": "102",
        "A": "8.7371E-08",
        "B": "0.80775",
        "C": "98.538",
        "D": "-0.0034513",
        "Tmin": "304.19",
        "Tmax": "1000"
    },
    "LiquidThermalConductivity": {
        "eqno": "16",
        "A": "0.065471",
        "B": "92.351",
        "C": "-2.8415",
        "D": "0.0012245",
        "E": "-0.0000029956",
        "Tmin": "293.15",
        "Tmax": "464.15"
    },
    "VaporThermalConductivity": {
        "eqno": "102",
        "A": "0.00018648",
        "B": "0.9302",
        "C": "709.37",
        "D": "-0.0036596",
        "Tmin": "304.19",
        "Tmax": "1000"
    },
    "SurfaceTension": {
        "eqno": "16",
        "A": "-0.0094371",
        "B": "291.18",
        "C": "-4.9944",
        "D": "0.0057186",
        "E": "-0.0000083653",
        "Tmin": "283.15",
        "Tmax": "697.55"
    },
    "RPPHeatCapacityCp": {
        "eqno": "100",
        "A": "23912",
        "B": "217.36",
        "C": "0.71039",
        "D": "-0.0011838",
        "E": "5.1458E-07",
        "Tmin": "50",
        "Tmax": "1000"
    },
    "RelativeStaticPermittivity": {
        "eqno": "120",
        "A": "-10.30921",
        "B": "-5750",
        "C": "-34.5",
        "Tmin": "279.15",
        "Tmax": "449.15"
    },
    "AntoineVaporPressure": {
        "eqno": "10",
        "A": "21.629",
        "B": "3891.6",
        "C": "-79.086",
        "Tmin": "419.41",
        "Tmax": "625"
    },
    "LiquidViscosityRPS": {
        "eqno": "13",
        "A": "8.2341",
        "B": "-0.06124",
        "C": "0.000056109",
        "Tmin": "293.15",
        "Tmax": "558.04"
    },
    "COSTALDVolume": "0.33928",
    "DiameterLJ": "6.682421E-10",
    "EnergyLJ": "279.7063",
    "FullerVolume": "117.59",
    "MatthiasCopemanC2": "-1.4627",
    "Parachor": "0.0458",
    "SpecificGravity": "1.03606",
    "Charge": "0",
    "CostaldAcentricFactor": "0.43299",
    "WilsonVolume": "0.104368",
    "UniquacR": "4.7567",
    "UniquacQ": "3.888",
    "MatthiasCopemanC3": "3.2512",
    "ChaoSeaderAcentricFactor": "0.433455",
    "ChaoSeaderSolubilityParameter": "23397.9",
    "ChaoSeaderLiquidVolume": "0.104368",
    "UnifacVLE": {
        "group": "1"
    },
    "UnifacLLE": {
        "group": "1"
    },
    "Asog": {
        "group": "1"
    },
    "GCmethod": {
        "group": "1"
    },
    "Umr": {
        "group": "1"
    },
    "ModifiedUnifac": {
        "group": "1"
    },
    "CAS": "95-48-7",
    "Smiles": "c1(O)c(C)cccc1"
}