{
    "LibraryIndex": "522",
    "CompoundID": "O-cymene",
    "StructureFormula": "CH3(C6H4)CH(CH3)2",
    "Family": "17",
    "CriticalTemperature": "670.15",
    "CriticalPressure": "2895870",
    "CriticalVolume": "0.478",
    "CriticalCompressibility": "0.26",
    "NormalBoilingPointTemperature": "451.33",
    "NormalMeltingPointTemperature": "201.64",
    "TriplePointTemperature": "201.64",
    "TriplePointPressure": "0.0177118",
    "MolecularWeight": "134.2182",
    "LiquidVolumeAtNormalBoilingPoint": "0.153824",
    "AcentricityFactor": "0.2769",
    "RadiusOfGyration": "4.439E-10",
    "SolubilityParameter": "17160",
    "DipoleMoment": "2.0E-30",
    "VanDerWaalsVolume": "0.09111",
    "VanDerWaalsArea": "1.153E+09",
    "HeatOfFormation": "-2.56061E+07",
    "GibbsEnergyOfFormation": "1.37359E+08",
    "AbsEntropy": "425500",
    "HeatOfFusionAtMeltingPoint": "1.0E+07",
    "MatthiasCopemanC1": "0.9",
    "HeatOfCombustion": "-5.56053E+09",
    "SolidDensity": {
        "eqno": "2",
        "A": "8.9396",
        "B": "-0.0049298",
        "C": "0",
        "D": "0",
        "E": "0",
        "Tmin": "80.66",
        "Tmax": "201.64"
    },
    "LiquidDensity": {
        "eqno": "105",
        "A": "0.017298",
        "B": "0.046645",
        "C": "670.15",
        "D": "0.11526",
        "Tmin": "201.64",
        "Tmax": "657"
    },
    "VaporPressure": {
        "eqno": "101",
        "A": "47.323",
        "B": "-6536.6",
        "C": "-3.5074",
        "D": "6.0254E-07",
        "E": "2",
        "Tmin": "201.64",
        "Tmax": "657"
    },
    "HeatOfVaporization": {
        "eqno": "106",
        "A": "8.44827E+07",
        "B": "3.205721",
        "C": "-8.334975",
        "D": "9.055186",
        "E": "-3.399515",
        "Tmin": "201.64",
        "Tmax": "657"
    },
    "SolidHeatCapacityCp": {
        "eqno": "1",
        "A": "214740",
        "Tmin": "0",
        "Tmax": "670.15"
    },
    "LiquidHeatCapacityCp": {
        "eqno": "16",
        "A": "130330",
        "B": "-123.14",
        "C": "10.583",
        "D": "0.0062464",
        "E": "-0.0000049954",
        "Tmin": "201.64",
        "Tmax": "451.33"
    },
    "IdealGasHeatCapacityCp": {
        "eqno": "16",
        "A": "105060",
        "B": "-664.9",
        "C": "13.437",
        "D": "-0.00013826",
        "E": "2.1794E-08",
        "Tmin": "273",
        "Tmax": "1500"
    },
    "SecondVirialCoefficient": {
        "eqno": "104",
        "A": "0.021656",
        "B": "-196.81",
        "C": "-126.59",
        "D": "-24488",
        "E": "23531",
        "Tmin": "201.64",
        "Tmax": "1500"
    },
    "LiquidViscosity": {
        "eqno": "101",
        "A": "-8.1679",
        "B": "885.64",
        "C": "-0.29176",
        "D": "-7.7161E-07",
        "E": "2",
        "Tmin": "201.64",
        "Tmax": "600"
    },
    "VaporViscosity": {
        "eqno": "102",
        "A": "0.0000020745",
        "B": "0.37852",
        "C": "642.92",
        "D": "259.27",
        "Tmin": "201.64",
        "Tmax": "1000"
    },
    "LiquidThermalConductivity": {
        "eqno": "16",
        "A": "0.06145",
        "B": "-173.56",
        "C": "-0.23519",
        "D": "-0.0077758",
        "E": "0.0000038715",
        "Tmin": "201.64",
        "Tmax": "451.33"
    },
    "VaporThermalConductivity": {
        "eqno": "102",
        "A": "0.000020459",
        "B": "1.2217",
        "C": "183.94",
        "D": "51167",
        "Tmin": "201.64",
        "Tmax": "1000"
    },
    "SurfaceTension": {
        "eqno": "16",
        "A": "-0.012864",
        "B": "40.847",
        "C": "-2.9372",
        "D": "-0.0001363",
        "E": "-0.0000031711",
        "Tmin": "201.64",
        "Tmax": "657"
    },
    "RPPHeatCapacityCp": {
        "eqno": "4",
        "A": "-31175",
        "B": "828.19",
        "C": "-0.48457",
        "D": "0.00010664",
        "Tmin": "298.15",
        "Tmax": "1500"
    },
    "AntoineVaporPressure": {
        "eqno": "10",
        "A": "21.481",
        "B": "4002",
        "C": "-49.35",
        "Tmin": "402.63",
        "Tmax": "585.1"
    },
    "LiquidViscosityRPS": {
        "eqno": "12",
        "A": "-4.1517",
        "B": "-0.0089047",
        "Tmin": "201.64",
        "Tmax": "529.6"
    },
    "COSTALDVolume": "0.501549",
    "DiameterLJ": "7.346598E-10",
    "EnergyLJ": "342.7593",
    "RacketParameter": "0.26",
    "FullerVolume": "173.04",
    "MatthiasCopemanC2": "0",
    "Parachor": "0.0648833",
    "SpecificGravity": "0.880891",
    "Charge": "0",
    "CostaldAcentricFactor": "0.2769",
    "WilsonVolume": "0.153824",
    "UniquacR": "6.0058",
    "UniquacQ": "4.612",
    "MatthiasCopemanC3": "0",
    "ChaoSeaderAcentricFactor": "0.2769",
    "ChaoSeaderSolubilityParameter": "17160",
    "ChaoSeaderLiquidVolume": "0.153824",
    "UnifacVLE": {
        "group": "1"
    },
    "UnifacLLE": {
        "group": "1"
    },
    "Asog": {
        "group": "2"
    },
    "GCmethod": {
        "group": "1"
    },
    "Umr": {
        "group": "1"
    },
    "ModifiedUnifac": {
        "group": "1"
    },
    "CAS": "527-84-4",
    "Smiles": "c1(C(C)C)c(C)cccc1"
}