{
    "LibraryIndex": "1572",
    "CompoundID": "O-dichlorobenzene",
    "StructureFormula": "(C6H4)Cl2",
    "Family": "29",
    "CriticalTemperature": "705",
    "CriticalPressure": "4070000",
    "CriticalVolume": "0.351",
    "CriticalCompressibility": "0.244",
    "NormalBoilingPointTemperature": "453.57",
    "NormalMeltingPointTemperature": "256.15",
    "TriplePointTemperature": "256.15",
    "TriplePointPressure": "6.48939",
    "MolecularWeight": "147.002",
    "LiquidVolumeAtNormalBoilingPoint": "0.112969",
    "AcentricityFactor": "0.219189",
    "RadiusOfGyration": "4.186E-10",
    "SolubilityParameter": "20310",
    "DipoleMoment": "8.34E-30",
    "VanDerWaalsVolume": "0.0673",
    "VanDerWaalsArea": "8.22E+08",
    "HeatOfFormation": "3.02E+07",
    "GibbsEnergyOfFormation": "8.29E+07",
    "AbsEntropy": "341850",
    "HeatOfFusionAtMeltingPoint": "1.266E+07",
    "MatthiasCopemanC1": "0.66193",
    "HeatOfCombustion": "-2.826E+09",
    "SolidDensity": {
        "eqno": "2",
        "A": "4.3487",
        "B": "0.023944",
        "Tmin": "233.15",
        "Tmax": "256.15"
    },
    "LiquidDensity": {
        "eqno": "105",
        "A": "0.74261",
        "B": "0.26108",
        "C": "705",
        "D": "0.30655",
        "Tmin": "256.15",
        "Tmax": "705"
    },
    "VaporPressure": {
        "eqno": "101",
        "A": "75.75983",
        "B": "-8226.762",
        "C": "-7.552754",
        "D": "6.191298E-07",
        "E": "2",
        "Tmin": "256.15",
        "Tmax": "705"
    },
    "HeatOfVaporization": {
        "eqno": "106",
        "A": "8.774E+07",
        "B": "2.8227",
        "C": "-6.8433",
        "D": "7.6547",
        "E": "-3.1275",
        "Tmin": "256.15",
        "Tmax": "705"
    },
    "SolidHeatCapacityCp": {
        "eqno": "100",
        "A": "34.618",
        "B": "1984.3",
        "C": "-12.98",
        "D": "0.037736",
        "E": "-0.000041136",
        "Tmin": "224.65",
        "Tmax": "234.15"
    },
    "LiquidHeatCapacityCp": {
        "eqno": "16",
        "A": "127840",
        "B": "-59.156",
        "C": "8.3728",
        "D": "0.0093569",
        "E": "-0.0000051714",
        "Tmin": "266.02",
        "Tmax": "528.75"
    },
    "IdealGasHeatCapacityCp": {
        "eqno": "16",
        "A": "55560",
        "B": "-490.51",
        "C": "12.648",
        "D": "-0.00012186",
        "E": "2.1792E-08",
        "Tmin": "200",
        "Tmax": "1500"
    },
    "SecondVirialCoefficient": {
        "eqno": "104",
        "A": "0.23253",
        "B": "-364.15",
        "C": "-75.666",
        "D": "-71505",
        "E": "114590",
        "Tmin": "352.5",
        "Tmax": "1937.5"
    },
    "LiquidViscosity": {
        "eqno": "101",
        "A": "-37.699",
        "B": "2377",
        "C": "4.0848",
        "D": "-0.0000020768",
        "E": "2",
        "Tmin": "256.15",
        "Tmax": "453.57"
    },
    "VaporViscosity": {
        "eqno": "102",
        "A": "1.6041E-07",
        "B": "0.76289",
        "C": "205.1",
        "D": "-39.728",
        "Tmin": "256.15",
        "Tmax": "1000"
    },
    "LiquidThermalConductivity": {
        "eqno": "16",
        "A": "0.06919",
        "B": "-379.09",
        "C": "0.89948",
        "D": "-0.0099037",
        "E": "0.0000041677",
        "Tmin": "262.87",
        "Tmax": "351.71"
    },
    "VaporThermalConductivity": {
        "eqno": "102",
        "A": "-1200.2",
        "B": "0.7235",
        "C": "-2.8422E+09",
        "D": "-8.8684E+10",
        "Tmin": "256.15",
        "Tmax": "1000"
    },
    "SurfaceTension": {
        "eqno": "16",
        "A": "-0.003373",
        "B": "482.91",
        "C": "-6.8665",
        "D": "0.011374",
        "E": "-0.00001512",
        "Tmin": "256.15",
        "Tmax": "705"
    },
    "RPPHeatCapacityCp": {
        "eqno": "4",
        "A": "-14297.98",
        "B": "550.447",
        "C": "-0.451286",
        "D": "0.000142863",
        "Tmin": "200",
        "Tmax": "1200"
    },
    "RelativeStaticPermittivity": {
        "eqno": "120",
        "A": "-6.104208",
        "B": "-3750",
        "C": "-22.5",
        "Tmin": "154",
        "Tmax": "449.15"
    },
    "AntoineVaporPressure": {
        "eqno": "10",
        "A": "20.671",
        "B": "3414.3",
        "C": "-79.992",
        "Tmin": "428.95",
        "Tmax": "634.13"
    },
    "LiquidViscosityRPS": {
        "eqno": "13",
        "A": "1.0621",
        "B": "-0.037459",
        "C": "0.000039274",
        "Tmin": "256.15",
        "Tmax": "453.57"
    },
    "COSTALDVolume": "0.361537",
    "DiameterLJ": "7.152857E-10",
    "EnergyLJ": "286.8836",
    "RacketParameter": "0.253547",
    "FullerVolume": "128.34",
    "MatthiasCopemanC2": "1.1558",
    "Parachor": "0.0495",
    "SpecificGravity": "1.3118",
    "Charge": "0",
    "CostaldAcentricFactor": "0.214215",
    "WilsonVolume": "0.11318",
    "UniquacR": "4.4376",
    "UniquacQ": "3.288",
    "MatthiasCopemanC3": "-1.5483",
    "ChaoSeaderAcentricFactor": "0.214215",
    "ChaoSeaderSolubilityParameter": "20271.3",
    "ChaoSeaderLiquidVolume": "0.11318",
    "UnifacVLE": {
        "group": "2"
    },
    "UnifacLLE": {
        "group": "2"
    },
    "Asog": {
        "group": "2"
    },
    "Umr": {
        "group": "2"
    },
    "ModifiedUnifac": {
        "group": "2"
    },
    "CAS": "95-50-1",
    "Smiles": "c1([Cl])ccccc1([Cl])"
}