{
    "LibraryIndex": "1282",
    "CompoundID": "O-toluic acid",
    "StructureFormula": "CH3(C6H4)COOH",
    "Family": "53",
    "CriticalTemperature": "751",
    "CriticalPressure": "3860000",
    "CriticalVolume": "0.397",
    "CriticalCompressibility": "0.245",
    "NormalBoilingPointTemperature": "532",
    "NormalMeltingPointTemperature": "376.85",
    "TriplePointTemperature": "376.85",
    "TriplePointPressure": "237.832",
    "MolecularWeight": "136.1479",
    "LiquidVolumeAtNormalBoilingPoint": "0.126888",
    "AcentricityFactor": "0.657237",
    "RadiusOfGyration": "4.387E-10",
    "SolubilityParameter": "22920",
    "DipoleMoment": "5.67059E-30",
    "VanDerWaalsVolume": "0.07673",
    "VanDerWaalsArea": "9.78E+08",
    "HeatOfFormation": "-3.22796E+08",
    "GibbsEnergyOfFormation": "-2.13346E+08",
    "AbsEntropy": "406141",
    "HeatOfFusionAtMeltingPoint": "2.01774E+07",
    "HeatOfCombustion": "-3.69902E+09",
    "SolidDensity": {
        "eqno": "2",
        "A": "9.4748",
        "B": "4.5776E-09",
        "C": "0",
        "D": "0",
        "E": "0",
        "Tmin": "376.85",
        "Tmax": "386.35"
    },
    "LiquidDensity": {
        "eqno": "105",
        "A": "0.61816",
        "B": "0.24687",
        "C": "751",
        "D": "0.2856",
        "Tmin": "376.85",
        "Tmax": "751"
    },
    "VaporPressure": {
        "eqno": "101",
        "A": "133.1988",
        "B": "-13740.37",
        "C": "-15.5105",
        "D": "5.245068E-06",
        "E": "2",
        "Tmin": "370",
        "Tmax": "751"
    },
    "HeatOfVaporization": {
        "eqno": "106",
        "A": "9.9956E+07",
        "B": "0.80217",
        "C": "-0.93427",
        "D": "0.8805",
        "E": "-0.3406",
        "Tmin": "376.85",
        "Tmax": "751"
    },
    "SolidHeatCapacityCp": {
        "eqno": "100",
        "A": "30.552",
        "B": "2311.3",
        "C": "-11.456",
        "D": "0.025236",
        "E": "-0.000020846",
        "Tmin": "298",
        "Tmax": "307.5"
    },
    "LiquidHeatCapacityCp": {
        "eqno": "16",
        "A": "129490",
        "B": "18.011",
        "C": "10.105",
        "D": "0.0057419",
        "E": "-0.000003975",
        "Tmin": "376.85",
        "Tmax": "532.35"
    },
    "IdealGasHeatCapacityCp": {
        "eqno": "16",
        "A": "85949",
        "B": "-929.05",
        "C": "14.065",
        "D": "-0.0013145",
        "E": "5.0858E-07",
        "Tmin": "273",
        "Tmax": "1000.15"
    },
    "LiquidViscosity": {
        "eqno": "101",
        "A": "-8.7015",
        "B": "1473.1",
        "C": "-0.25079",
        "D": "0.0000003109",
        "E": "2",
        "Tmin": "376.85",
        "Tmax": "600.8"
    },
    "VaporViscosity": {
        "eqno": "102",
        "A": "1.2379E-07",
        "B": "0.7551",
        "C": "177.89",
        "D": "-5611.1",
        "Tmin": "376.85",
        "Tmax": "1000"
    },
    "LiquidThermalConductivity": {
        "eqno": "16",
        "A": "-0.13162",
        "B": "29.195",
        "C": "-1.2663",
        "D": "0.000070644",
        "E": "-8.4448E-07",
        "Tmin": "225.3",
        "Tmax": "595.3"
    },
    "VaporThermalConductivity": {
        "eqno": "102",
        "A": "0.000027427",
        "B": "1.1315",
        "C": "204.73",
        "D": "55122",
        "Tmin": "274",
        "Tmax": "1000"
    },
    "SurfaceTension": {
        "eqno": "16",
        "A": "-0.088963",
        "B": "33.057",
        "C": "-2.0549",
        "D": "-0.00011701",
        "E": "-5.6887E-07",
        "Tmin": "376.85",
        "Tmax": "751"
    },
    "RPPHeatCapacityCp": {
        "eqno": "4",
        "A": "-36255",
        "B": "643.38",
        "C": "-0.35936",
        "D": "0.000063647",
        "Tmin": "273",
        "Tmax": "1000.15"
    },
    "AntoineVaporPressure": {
        "eqno": "10",
        "A": "22.059",
        "B": "4456.2",
        "C": "-109.65",
        "Tmin": "455.62",
        "Tmax": "674"
    },
    "LiquidViscosityRPS": {
        "eqno": "12",
        "A": "-3.9168",
        "B": "-0.0065457",
        "Tmin": "376.85",
        "Tmax": "600.8"
    },
    "COSTALDVolume": "0.415667",
    "DiameterLJ": "7.416104E-10",
    "EnergyLJ": "310.1352",
    "RacketParameter": "0.245",
    "FullerVolume": "139.6",
    "Parachor": "0.05133",
    "SpecificGravity": "1.153456",
    "Charge": "0",
    "CostaldAcentricFactor": "0.657237",
    "WilsonVolume": "0.126888",
    "UniquacR": "5.058",
    "UniquacQ": "3.912",
    "ChaoSeaderAcentricFactor": "0.657237",
    "ChaoSeaderSolubilityParameter": "22920",
    "ChaoSeaderLiquidVolume": "0.126888",
    "UnifacVLE": {
        "group": "1"
    },
    "UnifacLLE": {
        "group": "1"
    },
    "Asog": {
        "group": "1"
    },
    "Umr": {
        "group": "1"
    },
    "ModifiedUnifac": {
        "group": "1"
    },
    "CAS": "118-90-1",
    "Smiles": "c1(C)ccccc1(C(=O)O)"
}