{
    "LibraryIndex": "1255",
    "CompoundID": "Oxalic acid",
    "StructureFormula": "HOOCCOOH",
    "Family": "52",
    "CriticalTemperature": "804",
    "CriticalPressure": "7020000",
    "CriticalVolume": "0.205",
    "CriticalCompressibility": "0.215",
    "NormalBoilingPointTemperature": "569",
    "NormalMeltingPointTemperature": "462.65",
    "TriplePointTemperature": "462.65",
    "TriplePointPressure": "2152.34",
    "MolecularWeight": "90.03488",
    "LiquidVolumeAtNormalBoilingPoint": "0.0614585",
    "AcentricityFactor": "0.917597",
    "RadiusOfGyration": "3.22E-10",
    "SolubilityParameter": "35980",
    "DipoleMoment": "8.77E-30",
    "VanDerWaalsVolume": "0.03948",
    "VanDerWaalsArea": "6.12E+08",
    "HeatOfFormation": "-7.338E+08",
    "GibbsEnergyOfFormation": "-6.614E+08",
    "AbsEntropy": "343300",
    "HeatOfFusionAtMeltingPoint": "0",
    "HeatOfCombustion": "-2.01E+08",
    "SolidDensity": {
        "eqno": "2",
        "A": "19.12",
        "B": "-0.0026428",
        "C": "0",
        "D": "0",
        "E": "0",
        "Tmin": "85.15",
        "Tmax": "462.65"
    },
    "LiquidDensity": {
        "eqno": "105",
        "A": "1.0501",
        "B": "0.215",
        "C": "804",
        "D": "0.28571",
        "Tmin": "462.65",
        "Tmax": "804"
    },
    "VaporPressure": {
        "eqno": "101",
        "A": "216.92",
        "B": "-20979",
        "C": "-27.004",
        "D": "0.0000086326",
        "E": "2",
        "Tmin": "462.65",
        "Tmax": "804"
    },
    "HeatOfVaporization": {
        "eqno": "106",
        "A": "1.2079E+08",
        "B": "0.30321",
        "C": "0.62049",
        "D": "-0.9257",
        "E": "0.38682",
        "Tmin": "462.65",
        "Tmax": "786.03"
    },
    "SolidHeatCapacityCp": {
        "eqno": "100",
        "A": "-11394",
        "B": "847.14",
        "C": "-3.3297",
        "D": "0.0084208",
        "E": "-0.0000077485",
        "Tmin": "40.35",
        "Tmax": "323"
    },
    "LiquidHeatCapacityCp": {
        "eqno": "16",
        "A": "81965",
        "B": "-1.9623",
        "C": "9.0826",
        "D": "0.0038828",
        "E": "2.1663E-07",
        "Tmin": "462.65",
        "Tmax": "603"
    },
    "IdealGasHeatCapacityCp": {
        "eqno": "16",
        "A": "25231",
        "B": "-1473.6",
        "C": "15.259",
        "D": "-0.0058042",
        "E": "0.0000026122",
        "Tmin": "273",
        "Tmax": "1000.1"
    },
    "VaporViscosity": {
        "eqno": "102",
        "A": "1.3016E-07",
        "B": "0.7814",
        "C": "154.56",
        "D": "-3949.8",
        "Tmin": "462.65",
        "Tmax": "1000"
    },
    "LiquidThermalConductivity": {
        "eqno": "16",
        "A": "-0.088775",
        "B": "-213.56",
        "C": "0.1118",
        "D": "-0.0022725",
        "E": "3.5301E-07",
        "Tmin": "462.65",
        "Tmax": "643.2"
    },
    "VaporThermalConductivity": {
        "eqno": "102",
        "A": "0.084868",
        "B": "0.23486",
        "C": "15441",
        "D": "507600",
        "Tmin": "274",
        "Tmax": "1000"
    },
    "SurfaceTension": {
        "eqno": "16",
        "A": "-0.011612",
        "B": "847.01",
        "C": "-7.1508",
        "D": "0.0093795",
        "E": "-0.0000092018",
        "Tmin": "462.65",
        "Tmax": "786.03"
    },
    "RPPHeatCapacityCp": {
        "eqno": "4",
        "A": "-17972",
        "B": "229.76",
        "C": "-0.24007",
        "D": "0.000093102",
        "Tmin": "273",
        "Tmax": "1000.1"
    },
    "AntoineVaporPressure": {
        "eqno": "10",
        "A": "23.465",
        "B": "5198.7",
        "C": "-133.88",
        "Tmin": "496.79",
        "Tmax": "718.66"
    },
    "COSTALDVolume": "0.209305",
    "DiameterLJ": "6.959373E-10",
    "EnergyLJ": "207.4664",
    "RacketParameter": "0.215",
    "FullerVolume": "60.86",
    "Parachor": "0.0239",
    "SpecificGravity": "1.703223",
    "Charge": "0",
    "CostaldAcentricFactor": "0.917597",
    "WilsonVolume": "0.0614585",
    "UniquacR": "2.6026",
    "UniquacQ": "2.448",
    "ChaoSeaderAcentricFactor": "0.917597",
    "ChaoSeaderSolubilityParameter": "35980",
    "ChaoSeaderLiquidVolume": "0.0614585",
    "UnifacVLE": {
        "group": "2"
    },
    "UnifacLLE": {
        "group": "2"
    },
    "Asog": {
        "group": "2"
    },
    "Umr": {
        "group": "2"
    },
    "ModifiedUnifac": {
        "group": "2"
    },
    "CAS": "144-62-7",
    "Smiles": "C(=O)(O)C(=O)O"
}