{
    "LibraryIndex": "924",
    "CompoundID": "Ozone",
    "StructureFormula": "O3",
    "Family": "24",
    "CriticalTemperature": "261.05",
    "CriticalPressure": "5570000",
    "CriticalVolume": "0.0894",
    "CriticalCompressibility": "0.229",
    "NormalBoilingPointTemperature": "161.8",
    "NormalMeltingPointTemperature": "22.1499",
    "TriplePointTemperature": "80.15",
    "TriplePointPressure": "0.734621",
    "MolecularWeight": "47.9982",
    "LiquidVolumeAtNormalBoilingPoint": "0.0354",
    "AcentricityFactor": "0.224",
    "RadiusOfGyration": "1.544E-10",
    "SolubilityParameter": "18740",
    "DipoleMoment": "1.8E-30",
    "VanDerWaalsVolume": "0.016687",
    "VanDerWaalsArea": "3.175E+08",
    "HeatOfFormation": "1.431E+08",
    "GibbsEnergyOfFormation": "1.63164E+08",
    "AbsEntropy": "238823",
    "HeatOfFusionAtMeltingPoint": "2000000",
    "MatthiasCopemanC1": "0.755282",
    "HeatOfCombustion": "-1.42671E+08",
    "SolidDensity": {
        "eqno": "2",
        "A": "36.026",
        "B": "-0.000044231",
        "C": "0",
        "D": "0",
        "E": "0",
        "Tmin": "77.15",
        "Tmax": "86.65"
    },
    "LiquidDensity": {
        "eqno": "105",
        "A": "2.6432",
        "B": "0.26544",
        "C": "261.05",
        "D": "0.25239",
        "Tmin": "77.55",
        "Tmax": "261"
    },
    "VaporPressure": {
        "eqno": "101",
        "A": "33.80011",
        "B": "-2066.264",
        "C": "-1.865143",
        "D": "3.696996E-08",
        "E": "2",
        "Tmin": "80.15",
        "Tmax": "261"
    },
    "HeatOfVaporization": {
        "eqno": "106",
        "A": "1.6254E+07",
        "B": "-0.073447",
        "C": "0.14823",
        "D": "0.62225",
        "E": "-0.43277",
        "Tmin": "80.15",
        "Tmax": "261"
    },
    "SolidHeatCapacityCp": {
        "eqno": "1",
        "A": "40260",
        "Tmin": "0",
        "Tmax": "261.05"
    },
    "LiquidHeatCapacityCp": {
        "eqno": "16",
        "A": "64500",
        "B": "-60.205",
        "C": "9.9787",
        "D": "0.0080434",
        "E": "-0.000010929",
        "Tmin": "90",
        "Tmax": "150"
    },
    "IdealGasHeatCapacityCp": {
        "eqno": "16",
        "A": "32859.57",
        "B": "-604.7407",
        "C": "10.91207",
        "D": "-0.000287995",
        "E": "2.632407E-08",
        "Tmin": "50",
        "Tmax": "1500"
    },
    "SecondVirialCoefficient": {
        "eqno": "104",
        "A": "0.062399",
        "B": "-35.678",
        "C": "-1.1646",
        "D": "22.22",
        "E": "-31.557",
        "Tmin": "130.5",
        "Tmax": "1500"
    },
    "LiquidViscosity": {
        "eqno": "101",
        "A": "-37.036",
        "B": "815.78",
        "C": "4.8971",
        "D": "-0.000047646",
        "E": "2",
        "Tmin": "77.55",
        "Tmax": "208.8"
    },
    "VaporViscosity": {
        "eqno": "102",
        "A": "0.0000001896",
        "B": "0.78539",
        "C": "36.908",
        "D": "-2041.9",
        "Tmin": "80.15",
        "Tmax": "1000"
    },
    "LiquidThermalConductivity": {
        "eqno": "16",
        "A": "0.23255",
        "B": "-678.09",
        "C": "-6.5705",
        "D": "-0.074977",
        "E": "0.00025391",
        "Tmin": "77.35",
        "Tmax": "161.85"
    },
    "VaporThermalConductivity": {
        "eqno": "102",
        "A": "0.0043907",
        "B": "0.47832",
        "C": "709.48",
        "D": "233.72",
        "Tmin": "161.85",
        "Tmax": "1000"
    },
    "SurfaceTension": {
        "eqno": "16",
        "A": "-0.0083875",
        "B": "70.417",
        "C": "-4.4511",
        "D": "0.011555",
        "E": "-0.000053029",
        "Tmin": "77.2",
        "Tmax": "261"
    },
    "RPPHeatCapacityCp": {
        "eqno": "100",
        "A": "34139",
        "B": "-31.67",
        "C": "0.26033",
        "D": "-0.00035752",
        "E": "1.5074E-07",
        "Tmin": "50",
        "Tmax": "1000"
    },
    "AntoineVaporPressure": {
        "eqno": "10",
        "A": "21.205",
        "B": "1378.5",
        "C": "-19.313",
        "Tmin": "158.25",
        "Tmax": "232.44"
    },
    "LiquidViscosityRPS": {
        "eqno": "12",
        "A": "-3.661",
        "B": "-0.027987",
        "Tmin": "77.55",
        "Tmax": "208.8"
    },
    "COSTALDVolume": "0.0888007",
    "DiameterLJ": "4.892771E-10",
    "EnergyLJ": "84.53657",
    "RacketParameter": "0.245638",
    "FullerVolume": "18.33",
    "MatthiasCopemanC2": "0",
    "Parachor": "0.0135255",
    "SpecificGravity": "1.25782",
    "Charge": "0",
    "CostaldAcentricFactor": "0.224",
    "WilsonVolume": "0.0354",
    "UniquacR": "1.1",
    "UniquacQ": "1.27",
    "MatthiasCopemanC3": "0",
    "ChaoSeaderAcentricFactor": "0.224",
    "ChaoSeaderSolubilityParameter": "18740",
    "ChaoSeaderLiquidVolume": "0.0354",
    "Umr": {
        "group": "1"
    },
    "CAS": "10028-15-6",
    "Smiles": "O=[O+][O-]"
}