{
    "LibraryIndex": "544",
    "CompoundID": "P-diisopropylbenzene",
    "StructureFormula": "(CH3)2CH(C6H4)CH(CH3)2",
    "Family": "17",
    "CriticalTemperature": "675",
    "CriticalPressure": "2360000",
    "CriticalVolume": "0.584",
    "CriticalCompressibility": "0.256",
    "NormalBoilingPointTemperature": "483.52",
    "NormalMeltingPointTemperature": "256.08",
    "TriplePointTemperature": "256.08",
    "TriplePointPressure": "0.697953",
    "MolecularWeight": "162.2713",
    "LiquidVolumeAtNormalBoilingPoint": "0.190236",
    "AcentricityFactor": "0.476415",
    "RadiusOfGyration": "5.178E-10",
    "SolubilityParameter": "16930",
    "VanDerWaalsVolume": "0.101",
    "VanDerWaalsArea": "1.404E+09",
    "HeatOfFormation": "-7.76E+07",
    "GibbsEnergyOfFormation": "1.47804E+08",
    "AbsEntropy": "488000",
    "HeatOfFusionAtMeltingPoint": "0",
    "MatthiasCopemanC1": "1.3262",
    "HeatOfCombustion": "-6.77E+09",
    "SolidDensity": {
        "eqno": "2",
        "A": "6.9021",
        "B": "-0.0029994",
        "C": "0",
        "D": "0",
        "E": "0",
        "Tmin": "102.43",
        "Tmax": "256.08"
    },
    "LiquidDensity": {
        "eqno": "105",
        "A": "0.77801",
        "B": "0.34547",
        "C": "675",
        "D": "0.38736",
        "Tmin": "256.08",
        "Tmax": "666.21"
    },
    "VaporPressure": {
        "eqno": "101",
        "A": "121.6259",
        "B": "-10711.76",
        "C": "-14.56272",
        "D": "8.944308E-06",
        "E": "2",
        "Tmin": "256.08",
        "Tmax": "689"
    },
    "HeatOfVaporization": {
        "eqno": "106",
        "A": "9.572101E+07",
        "B": "2.166143",
        "C": "-4.616074",
        "D": "4.777254",
        "E": "-1.852374",
        "Tmin": "256.08",
        "Tmax": "666.21"
    },
    "SolidHeatCapacityCp": {
        "eqno": "100",
        "A": "34130",
        "B": "321.92",
        "C": "9.2079",
        "D": "-0.053989",
        "E": "0.00010157",
        "Tmin": "50",
        "Tmax": "256.08"
    },
    "LiquidHeatCapacityCp": {
        "eqno": "16",
        "A": "-70570",
        "B": "94.476",
        "C": "11.349",
        "D": "0.0048258",
        "E": "-0.0000034771",
        "Tmin": "256.08",
        "Tmax": "483.65"
    },
    "IdealGasHeatCapacityCp": {
        "eqno": "16",
        "A": "100830",
        "B": "-531.56",
        "C": "13.456",
        "D": "0.000043333",
        "E": "-2.4118E-08",
        "Tmin": "300",
        "Tmax": "1500"
    },
    "SecondVirialCoefficient": {
        "eqno": "104",
        "A": "0.34296",
        "B": "-577.3",
        "C": "-147.03",
        "D": "-140880",
        "E": "339020",
        "Tmin": "344.5",
        "Tmax": "2000"
    },
    "LiquidViscosity": {
        "eqno": "101",
        "A": "-8.9912",
        "B": "1148.7",
        "C": "-0.35833",
        "D": "4.6037E-07",
        "E": "2",
        "Tmin": "256.08",
        "Tmax": "573"
    },
    "VaporViscosity": {
        "eqno": "102",
        "A": "8.0354E-07",
        "B": "0.48062",
        "C": "391.1",
        "D": "176.97",
        "Tmin": "483.65",
        "Tmax": "1000"
    },
    "LiquidThermalConductivity": {
        "eqno": "16",
        "A": "-0.043466",
        "B": "-14.777",
        "C": "-1.4776",
        "D": "-0.00080068",
        "E": "-0.0000006904",
        "Tmin": "256.08",
        "Tmax": "483.65"
    },
    "VaporThermalConductivity": {
        "eqno": "102",
        "A": "0.31596",
        "B": "-0.074042",
        "C": "-318.59",
        "D": "1928600",
        "Tmin": "256.08",
        "Tmax": "1000"
    },
    "SurfaceTension": {
        "eqno": "16",
        "A": "-0.01271",
        "B": "60.745",
        "C": "-3.2229",
        "D": "0.00049535",
        "E": "-0.0000035281",
        "Tmin": "256.08",
        "Tmax": "666.21"
    },
    "RPPHeatCapacityCp": {
        "eqno": "4",
        "A": "-44517",
        "B": "1071.8",
        "C": "-0.66372",
        "D": "0.00015645",
        "Tmin": "300",
        "Tmax": "1500"
    },
    "AntoineVaporPressure": {
        "eqno": "10",
        "A": "20.599",
        "B": "3490",
        "C": "-98.353",
        "Tmin": "407.05",
        "Tmax": "597.86"
    },
    "LiquidViscosityRPS": {
        "eqno": "12",
        "A": "-4.216",
        "B": "-0.0097312",
        "Tmin": "256.08",
        "Tmax": "483.65"
    },
    "COSTALDVolume": "0.563273",
    "DiameterLJ": "8.001313E-10",
    "EnergyLJ": "326.4983",
    "RacketParameter": "0.256",
    "FullerVolume": "214.08",
    "MatthiasCopemanC2": "-1.118",
    "Parachor": "0.0776962",
    "SpecificGravity": "0.861206",
    "Charge": "0",
    "CostaldAcentricFactor": "0.390023",
    "WilsonVolume": "0.190236",
    "UniquacR": "7.3538",
    "UniquacQ": "5.688",
    "ApiSrkS2": "0.022869",
    "MatthiasCopemanC3": "2.0168",
    "ChaoSeaderAcentricFactor": "0.390023",
    "ChaoSeaderSolubilityParameter": "16930",
    "ChaoSeaderLiquidVolume": "0.190236",
    "UnifacVLE": {
        "group": "2"
    },
    "UnifacLLE": {
        "group": "2"
    },
    "Asog": {
        "group": "2"
    },
    "GCmethod": {
        "group": "2"
    },
    "Umr": {
        "group": "2"
    },
    "ModifiedUnifac": {
        "group": "2"
    },
    "CAS": "100-18-5",
    "Smiles": "c1(C(C)C)ccc(C(C)C)cc1"
}