{
    "LibraryIndex": "527",
    "CompoundID": "P-diethylbenzene",
    "StructureFormula": "CH3CH2(C6H4)CH2CH3",
    "Family": "10",
    "CriticalTemperature": "657.9",
    "CriticalPressure": "2803000",
    "CriticalVolume": "0.4805",
    "CriticalCompressibility": "0.247",
    "NormalBoilingPointTemperature": "456.9",
    "NormalMeltingPointTemperature": "230.3",
    "TriplePointTemperature": "230.325",
    "TriplePointPressure": "0.21291",
    "MolecularWeight": "134.2182",
    "LiquidVolumeAtNormalBoilingPoint": "0.15645",
    "AcentricityFactor": "0.403",
    "RadiusOfGyration": "4.58E-10",
    "SolubilityParameter": "17660",
    "DipoleMoment": "0",
    "VanDerWaalsVolume": "0.09112",
    "VanDerWaalsArea": "1.154E+09",
    "HeatOfFormation": "-2.23E+07",
    "GibbsEnergyOfFormation": "1.385E+08",
    "AbsEntropy": "433100",
    "HeatOfFusionAtMeltingPoint": "1.06E+07",
    "MatthiasCopemanC1": "1.152907",
    "HeatOfCombustion": "-5.5553E+09",
    "SolidDensity": {
        "eqno": "2",
        "A": "8.6072",
        "B": "-0.0041601",
        "C": "0",
        "D": "0",
        "E": "0",
        "Tmin": "92.13",
        "Tmax": "230.33"
    },
    "LiquidDensity": {
        "eqno": "105",
        "A": "0.50239",
        "B": "0.25108",
        "C": "657.9",
        "D": "0.28806",
        "Tmin": "230.32",
        "Tmax": "657.9"
    },
    "VaporPressure": {
        "eqno": "101",
        "A": "108.74",
        "B": "-9636.7",
        "C": "-12.656",
        "D": "0.000006664",
        "E": "2",
        "Tmin": "230.32",
        "Tmax": "657.9"
    },
    "HeatOfVaporization": {
        "eqno": "106",
        "A": "5.468714E+07",
        "B": "-1.551219",
        "C": "6.621841",
        "D": "-8.199596",
        "E": "3.486311",
        "Tmin": "230.32",
        "Tmax": "657.9"
    },
    "SolidHeatCapacityCp": {
        "eqno": "100",
        "A": "7197.6",
        "B": "988.33",
        "C": "-2.1237",
        "D": "0.0060518",
        "E": "-0.0000076904",
        "Tmin": "50",
        "Tmax": "230.33"
    },
    "LiquidHeatCapacityCp": {
        "eqno": "16",
        "A": "42717",
        "B": "-14.138",
        "C": "11.106",
        "D": "0.0050234",
        "E": "-0.0000039715",
        "Tmin": "230.32",
        "Tmax": "456.94"
    },
    "IdealGasHeatCapacityCp": {
        "eqno": "16",
        "A": "117030",
        "B": "-755.24",
        "C": "13.637",
        "D": "-0.00037709",
        "E": "9.9721E-08",
        "Tmin": "200",
        "Tmax": "1500"
    },
    "SecondVirialCoefficient": {
        "eqno": "104",
        "A": "0.33339",
        "B": "-427.85",
        "C": "-102.98",
        "D": "-24864",
        "E": "-4016.1",
        "Tmin": "328.95",
        "Tmax": "1809"
    },
    "LiquidViscosity": {
        "eqno": "101",
        "A": "-11.766",
        "B": "1322.3",
        "C": "0.075076",
        "D": "-1.4518E-07",
        "E": "2",
        "Tmin": "230.32",
        "Tmax": "550"
    },
    "VaporViscosity": {
        "eqno": "102",
        "A": "7.2136E-07",
        "B": "0.49617",
        "C": "343.97",
        "D": "-290.07",
        "Tmin": "230.32",
        "Tmax": "1000"
    },
    "LiquidThermalConductivity": {
        "eqno": "16",
        "A": "-0.054323",
        "B": "-5.9143",
        "C": "-1.4413",
        "D": "-0.00065059",
        "E": "-8.3255E-07",
        "Tmin": "230.32",
        "Tmax": "456.94"
    },
    "VaporThermalConductivity": {
        "eqno": "102",
        "A": "0.000023956",
        "B": "1.1969",
        "C": "213.51",
        "D": "48127",
        "Tmin": "230.325",
        "Tmax": "1000"
    },
    "SurfaceTension": {
        "eqno": "16",
        "A": "-0.059365",
        "B": "-49.68",
        "C": "-1.6376",
        "D": "-0.0024385",
        "E": "0.000001123",
        "Tmin": "230.32",
        "Tmax": "657.9"
    },
    "RPPHeatCapacityCp": {
        "eqno": "100",
        "A": "-2984.9",
        "B": "626.67",
        "C": "0.03675",
        "D": "-0.00047692",
        "E": "2.3139E-07",
        "Tmin": "298",
        "Tmax": "1000"
    },
    "AntoineVaporPressure": {
        "eqno": "10",
        "A": "21.159",
        "B": "3770.1",
        "C": "-65.556",
        "Tmin": "395.19",
        "Tmax": "590.39"
    },
    "LiquidViscosityRPS": {
        "eqno": "12",
        "A": "-3.1726",
        "B": "-0.012096",
        "Tmin": "230.32",
        "Tmax": "456.94"
    },
    "COSTALDVolume": "0.50161",
    "DiameterLJ": "7.826599E-10",
    "EnergyLJ": "279.7577",
    "RacketParameter": "0.247",
    "FullerVolume": "173.04",
    "MatthiasCopemanC2": "-0.580044",
    "Parachor": "0.0635175",
    "SpecificGravity": "0.866273",
    "Charge": "0",
    "CostaldAcentricFactor": "0.403",
    "WilsonVolume": "0.15645",
    "UniquacR": "6.0066",
    "UniquacQ": "4.616",
    "ApiSrkS2": "-0.006384",
    "MatthiasCopemanC3": "1.084594",
    "ChaoSeaderAcentricFactor": "0.403",
    "ChaoSeaderSolubilityParameter": "17660",
    "ChaoSeaderLiquidVolume": "0.15645",
    "UnifacVLE": {
        "group": "2"
    },
    "UnifacLLE": {
        "group": "2"
    },
    "Asog": {
        "group": "2"
    },
    "GCmethod": {
        "group": "2"
    },
    "Umr": {
        "group": "2"
    },
    "ModifiedUnifac": {
        "group": "2"
    },
    "CAS": "105-05-5",
    "Smiles": "c1(CC)ccc(CC)cc1"
}