{
    "LibraryIndex": "1574",
    "CompoundID": "P-dichlorobenzene",
    "StructureFormula": "(C6H4)Cl2",
    "Family": "29",
    "CriticalTemperature": "684.75",
    "CriticalPressure": "4070000",
    "CriticalVolume": "0.351",
    "CriticalCompressibility": "0.251",
    "NormalBoilingPointTemperature": "447.21",
    "NormalMeltingPointTemperature": "326.14",
    "TriplePointTemperature": "326.14",
    "TriplePointPressure": "1225.03",
    "MolecularWeight": "147.002",
    "LiquidVolumeAtNormalBoilingPoint": "0.117406",
    "AcentricityFactor": "0.284638",
    "RadiusOfGyration": "4.149E-10",
    "SolubilityParameter": "19330",
    "DipoleMoment": "0",
    "VanDerWaalsVolume": "0.06732",
    "VanDerWaalsArea": "8.22E+08",
    "HeatOfFormation": "2.25E+07",
    "GibbsEnergyOfFormation": "7.67E+07",
    "AbsEntropy": "336740",
    "HeatOfFusionAtMeltingPoint": "1.82E+07",
    "MatthiasCopemanC1": "0.61751",
    "HeatOfCombustion": "-2.802E+09",
    "SolidDensity": {
        "eqno": "2",
        "A": "10.872",
        "B": "-0.0022226",
        "Tmin": "133.15",
        "Tmax": "326.14"
    },
    "LiquidDensity": {
        "eqno": "105",
        "A": "0.74861",
        "B": "0.26271",
        "C": "684.75",
        "D": "0.30815",
        "Tmin": "326.14",
        "Tmax": "684.75"
    },
    "VaporPressure": {
        "eqno": "101",
        "A": "40.63688",
        "B": "-6607.72",
        "C": "-2.221184",
        "D": "-3.90747E-06",
        "E": "2",
        "Tmin": "298.15",
        "Tmax": "684.75"
    },
    "HeatOfVaporization": {
        "eqno": "106",
        "A": "6.112633E+07",
        "B": "0.426201",
        "C": "-0.0366365",
        "D": "0.00811781",
        "E": "-0.00754654",
        "Tmin": "298.15",
        "Tmax": "684.75"
    },
    "SolidHeatCapacityCp": {
        "eqno": "100",
        "A": "5903.9",
        "B": "798.4",
        "C": "-2.8553",
        "D": "0.0083402",
        "E": "-0.0000080094",
        "Tmin": "40",
        "Tmax": "320"
    },
    "LiquidHeatCapacityCp": {
        "eqno": "16",
        "A": "155200",
        "B": "855.07",
        "C": "0.88585",
        "D": "0.024843",
        "E": "-0.000014582",
        "Tmin": "326.14",
        "Tmax": "513.56"
    },
    "IdealGasHeatCapacityCp": {
        "eqno": "16",
        "A": "55695",
        "B": "-489.46",
        "C": "12.649",
        "D": "-0.00012524",
        "E": "2.3115E-08",
        "Tmin": "200",
        "Tmax": "1500"
    },
    "SecondVirialCoefficient": {
        "eqno": "104",
        "A": "0.23632",
        "B": "-343.91",
        "C": "-71.253",
        "D": "-46.219",
        "E": "-58041",
        "Tmin": "342.37",
        "Tmax": "1500"
    },
    "LiquidViscosity": {
        "eqno": "101",
        "A": "-131.86",
        "B": "5312.8",
        "C": "19.284",
        "D": "-0.000029085",
        "E": "2",
        "Tmin": "326.14",
        "Tmax": "447.21"
    },
    "VaporViscosity": {
        "eqno": "102",
        "A": "1.5946E-07",
        "B": "0.76369",
        "C": "193.94",
        "D": "-148.97",
        "Tmin": "326.14",
        "Tmax": "1000"
    },
    "LiquidThermalConductivity": {
        "eqno": "16",
        "A": "0.02927",
        "B": "-28.287",
        "C": "-2.0319",
        "D": "0.000077764",
        "E": "-0.0000037797",
        "Tmin": "208.5",
        "Tmax": "548.5"
    },
    "VaporThermalConductivity": {
        "eqno": "102",
        "A": "-2269.7",
        "B": "0.68598",
        "C": "-3.774E+09",
        "D": "-2.6655E+11",
        "Tmin": "326.14",
        "Tmax": "1000"
    },
    "SurfaceTension": {
        "eqno": "16",
        "A": "-0.0075966",
        "B": "340.08",
        "C": "-5.3586",
        "D": "0.0064741",
        "E": "-0.0000095368",
        "Tmin": "326.14",
        "Tmax": "684.75"
    },
    "RPPHeatCapacityCp": {
        "eqno": "4",
        "A": "-14350.7",
        "B": "553.2085",
        "C": "-0.455679",
        "D": "0.000144745",
        "Tmin": "200",
        "Tmax": "1200"
    },
    "RelativeStaticPermittivity": {
        "eqno": "120",
        "A": "-2.165126",
        "B": "-1430",
        "C": "-8.58",
        "Tmin": "154",
        "Tmax": "444.15"
    },
    "AntoineVaporPressure": {
        "eqno": "10",
        "A": "21.115",
        "B": "3752.8",
        "C": "-56.114",
        "Tmin": "420.51",
        "Tmax": "609.25"
    },
    "LiquidViscosityRPS": {
        "eqno": "13",
        "A": "-4.2213",
        "B": "-0.0089482",
        "C": "6.2913E-07",
        "Tmin": "326.14",
        "Tmax": "447.21"
    },
    "COSTALDVolume": "0.36165",
    "DiameterLJ": "6.914152E-10",
    "EnergyLJ": "308.5109",
    "RacketParameter": "0.258222",
    "FullerVolume": "128.34",
    "MatthiasCopemanC2": "2.1786",
    "Parachor": "0.0501",
    "SpecificGravity": "1.2962",
    "Charge": "0",
    "CostaldAcentricFactor": "0.234279",
    "WilsonVolume": "0.117341",
    "UniquacR": "4.4376",
    "UniquacQ": "3.288",
    "MatthiasCopemanC3": "-3.8932",
    "ChaoSeaderAcentricFactor": "0.234279",
    "ChaoSeaderSolubilityParameter": "19187.2",
    "ChaoSeaderLiquidVolume": "0.117341",
    "UnifacVLE": {
        "group": "2"
    },
    "UnifacLLE": {
        "group": "2"
    },
    "Asog": {
        "group": "2"
    },
    "Umr": {
        "group": "2"
    },
    "ModifiedUnifac": {
        "group": "2"
    },
    "CAS": "106-46-7",
    "Smiles": "c1cc([Cl])ccc1([Cl])"
}