{
    "LibraryIndex": "2750",
    "CompoundID": "P-phenylenediamine",
    "StructureFormula": "(C6H4)(NH2)2",
    "Family": "36",
    "CriticalTemperature": "796",
    "CriticalPressure": "5180000",
    "CriticalVolume": "0.377",
    "CriticalCompressibility": "0.248",
    "NormalBoilingPointTemperature": "540",
    "NormalMeltingPointTemperature": "419",
    "TriplePointTemperature": "413",
    "TriplePointPressure": "1388.21",
    "MolecularWeight": "108.1411",
    "LiquidVolumeAtNormalBoilingPoint": "0.102198",
    "AcentricityFactor": "0.53864",
    "RadiusOfGyration": "3.733E-10",
    "SolubilityParameter": "24810",
    "DipoleMoment": "5.1E-30",
    "VanDerWaalsVolume": "0.0644",
    "VanDerWaalsArea": "8.08E+08",
    "HeatOfFormation": "9.12E+07",
    "GibbsEnergyOfFormation": "2.1E+08",
    "AbsEntropy": "349000",
    "HeatOfFusionAtMeltingPoint": "2.68E+07",
    "HeatOfCombustion": "-3.33E+09",
    "SolidDensity": {
        "eqno": "2",
        "A": "12.426",
        "B": "-0.0033838",
        "C": "0",
        "D": "0",
        "E": "0",
        "Tmin": "165.2",
        "Tmax": "413"
    },
    "LiquidDensity": {
        "eqno": "105",
        "A": "0.78274",
        "B": "0.24798",
        "C": "796",
        "D": "0.28573",
        "Tmin": "413",
        "Tmax": "775.84"
    },
    "VaporPressure": {
        "eqno": "101",
        "A": "120.7365",
        "B": "-13060.28",
        "C": "-13.71648",
        "D": "4.333592E-06",
        "E": "2",
        "Tmin": "298.15",
        "Tmax": "796"
    },
    "HeatOfVaporization": {
        "eqno": "106",
        "A": "1.0783E+08",
        "B": "1.6408",
        "C": "-3.3392",
        "D": "3.5461",
        "E": "-1.4179",
        "Tmin": "413",
        "Tmax": "775.84"
    },
    "SolidHeatCapacityCp": {
        "eqno": "100",
        "A": "5535.8",
        "B": "549.11",
        "C": "-0.79398",
        "D": "0.0014488",
        "E": "-0.0000011393",
        "Tmin": "50",
        "Tmax": "413"
    },
    "LiquidHeatCapacityCp": {
        "eqno": "16",
        "A": "199750",
        "B": "494.23",
        "C": "5.1045",
        "D": "0.015817",
        "E": "-0.000010858",
        "Tmin": "413",
        "Tmax": "588"
    },
    "IdealGasHeatCapacityCp": {
        "eqno": "16",
        "A": "58132",
        "B": "-482.33",
        "C": "12.882",
        "D": "-0.000085339",
        "E": "9.0492E-09",
        "Tmin": "273",
        "Tmax": "1500"
    },
    "SecondVirialCoefficient": {
        "eqno": "104",
        "A": "0.22693",
        "B": "-318.73",
        "C": "-138.3",
        "D": "-255620",
        "E": "535900",
        "Tmin": "398",
        "Tmax": "1830"
    },
    "LiquidViscosity": {
        "eqno": "101",
        "A": "-8.9816",
        "B": "2291",
        "C": "-0.53494",
        "D": "2.8717E-07",
        "E": "2",
        "Tmin": "413",
        "Tmax": "596"
    },
    "VaporViscosity": {
        "eqno": "102",
        "A": "1.4679E-07",
        "B": "0.74191",
        "C": "224.79",
        "D": "-11478",
        "Tmin": "413",
        "Tmax": "1000"
    },
    "LiquidThermalConductivity": {
        "eqno": "16",
        "A": "0.0030572",
        "B": "-268.6",
        "C": "0.38244",
        "D": "-0.0036549",
        "E": "8.2114E-07",
        "Tmin": "413",
        "Tmax": "540"
    },
    "VaporThermalConductivity": {
        "eqno": "102",
        "A": "0.000070276",
        "B": "1.0203",
        "C": "189.91",
        "D": "62690",
        "Tmin": "274",
        "Tmax": "1000"
    },
    "SurfaceTension": {
        "eqno": "16",
        "A": "-0.012384",
        "B": "521.02",
        "C": "-5.5892",
        "D": "0.0063731",
        "E": "-0.0000072097",
        "Tmin": "413",
        "Tmax": "775.84"
    },
    "RPPHeatCapacityCp": {
        "eqno": "4",
        "A": "-13543",
        "B": "616.65",
        "C": "-0.42898",
        "D": "0.00010942",
        "Tmin": "273",
        "Tmax": "1500"
    },
    "AntoineVaporPressure": {
        "eqno": "10",
        "A": "22.019",
        "B": "4568.9",
        "C": "-104.99",
        "Tmin": "489.6",
        "Tmax": "715.37"
    },
    "LiquidViscosityRPS": {
        "eqno": "12",
        "A": "-2.0631",
        "B": "-0.011145",
        "Tmin": "413",
        "Tmax": "540"
    },
    "COSTALDVolume": "0.345195",
    "DiameterLJ": "7.183731E-10",
    "EnergyLJ": "343.4411",
    "RacketParameter": "0.248",
    "FullerVolume": "104.66",
    "Parachor": "0.0422",
    "SpecificGravity": "1.164317",
    "Charge": "0",
    "CostaldAcentricFactor": "0.53864",
    "WilsonVolume": "0.102198",
    "UniquacR": "4.2452",
    "UniquacQ": "3.232",
    "ChaoSeaderAcentricFactor": "0.53864",
    "ChaoSeaderSolubilityParameter": "24810",
    "UnifacVLE": {
        "group": "4"
    },
    "UnifacLLE": {
        "group": "4"
    },
    "Asog": {
        "group": "2"
    },
    "Umr": {
        "group": "4"
    },
    "ModifiedUnifac": {
        "group": "4"
    },
    "CAS": "106-50-3",
    "Smiles": "c1(N)ccc(N)cc1"
}