{
    "LibraryIndex": "1181",
    "CompoundID": "Phenol",
    "StructureFormula": "(C6H5)OH",
    "Family": "48",
    "CriticalTemperature": "694.25",
    "CriticalPressure": "6130000",
    "CriticalVolume": "0.229",
    "CriticalCompressibility": "0.243",
    "NormalBoilingPointTemperature": "455.04",
    "NormalMeltingPointTemperature": "314.06",
    "TriplePointTemperature": "314.06",
    "TriplePointPressure": "187.979",
    "MolecularWeight": "94.11124",
    "LiquidVolumeAtNormalBoilingPoint": "0.08787",
    "AcentricityFactor": "0.442",
    "RadiusOfGyration": "3.415E-10",
    "SolubilityParameter": "24630",
    "DipoleMoment": "4.84E-30",
    "VanDerWaalsVolume": "0.0538",
    "VanDerWaalsArea": "6.79E+08",
    "HeatOfFormation": "-9.6399E+07",
    "GibbsEnergyOfFormation": "-3.2637E+07",
    "AbsEntropy": "314810",
    "HeatOfFusionAtMeltingPoint": "1.151E+07",
    "MatthiasCopemanC1": "1.524",
    "HeatOfCombustion": "-2.921E+09",
    "SolidDensity": {
        "eqno": "2",
        "A": "11.394",
        "B": "0.0020984",
        "Tmin": "261.15",
        "Tmax": "314.06"
    },
    "LiquidDensity": {
        "eqno": "105",
        "A": "1.4937",
        "B": "0.32883",
        "C": "694.25",
        "D": "0.34018",
        "Tmin": "314.06",
        "Tmax": "688.71"
    },
    "VaporPressure": {
        "eqno": "101",
        "A": "300.97",
        "B": "-20269",
        "C": "-40.743",
        "D": "0.000021631",
        "E": "2",
        "Tmin": "310.45",
        "Tmax": "694.25"
    },
    "HeatOfVaporization": {
        "eqno": "106",
        "A": "7.270282E+07",
        "B": "-0.265673",
        "C": "2.248545",
        "D": "-2.018709",
        "E": "0.353169",
        "Tmin": "314.06",
        "Tmax": "674.24"
    },
    "SolidHeatCapacityCp": {
        "eqno": "100",
        "A": "2513.5",
        "B": "793.73",
        "C": "-4.1506",
        "D": "0.014189",
        "E": "-0.000014807",
        "Tmin": "40",
        "Tmax": "314.05"
    },
    "LiquidHeatCapacityCp": {
        "eqno": "16",
        "A": "86710",
        "B": "-628.11",
        "C": "15.735",
        "D": "-0.0091743",
        "E": "0.0000081827",
        "Tmin": "314.05",
        "Tmax": "655.37"
    },
    "IdealGasHeatCapacityCp": {
        "eqno": "16",
        "A": "39758",
        "B": "-470.56",
        "C": "12.627",
        "D": "0.000068347",
        "E": "-4.9708E-08",
        "Tmin": "100",
        "Tmax": "1500"
    },
    "SecondVirialCoefficient": {
        "eqno": "104",
        "A": "0.22714",
        "B": "-180.33",
        "C": "-95.063",
        "D": "-17328",
        "E": "21635",
        "Tmin": "323.15",
        "Tmax": "2000"
    },
    "LiquidViscosity": {
        "eqno": "101",
        "A": "-203.001",
        "B": "10884.21",
        "C": "28.73615",
        "D": "-0.0000224564",
        "E": "2",
        "Tmin": "291.45",
        "Tmax": "690"
    },
    "VaporViscosity": {
        "eqno": "102",
        "A": "1.0771E-07",
        "B": "0.79384",
        "C": "145.89",
        "D": "-11364",
        "Tmin": "199.82",
        "Tmax": "1000"
    },
    "LiquidThermalConductivity": {
        "eqno": "16",
        "A": "0.14109",
        "B": "-966.5",
        "C": "10.659",
        "D": "-0.049095",
        "E": "0.000038703",
        "Tmin": "314.06",
        "Tmax": "454.99"
    },
    "VaporThermalConductivity": {
        "eqno": "102",
        "A": "0.03495",
        "B": "0.27845",
        "C": "1585.2",
        "D": "862070",
        "Tmin": "199.82",
        "Tmax": "1000"
    },
    "SurfaceTension": {
        "eqno": "16",
        "A": "-0.047876",
        "B": "-16.307",
        "C": "-2.0376",
        "D": "-0.0009046",
        "E": "-0.0000007358",
        "Tmin": "273.15",
        "Tmax": "674.24"
    },
    "RPPHeatCapacityCp": {
        "eqno": "100",
        "A": "21468",
        "B": "145.51",
        "C": "0.73949",
        "D": "-0.0012002",
        "E": "5.2523E-07",
        "Tmin": "50",
        "Tmax": "1000"
    },
    "RelativeStaticPermittivity": {
        "eqno": "120",
        "A": "11.2",
        "B": "-1000",
        "C": "-50",
        "Tmin": "313",
        "Tmax": "694"
    },
    "AntoineVaporPressure": {
        "eqno": "10",
        "A": "21.465",
        "B": "3610.5",
        "C": "-91.898",
        "Tmin": "417",
        "Tmax": "620"
    },
    "LiquidViscosityRPS": {
        "eqno": "13",
        "A": "-0.57041",
        "B": "-0.0078308",
        "C": "-0.000023564",
        "Tmin": "291.45",
        "Tmax": "555.4"
    },
    "COSTALDVolume": "0.2809",
    "DiameterLJ": "6.234419E-10",
    "EnergyLJ": "278.3631",
    "FullerVolume": "97.06999",
    "MatthiasCopemanC2": "-3.46962",
    "Parachor": "0.0394845",
    "SpecificGravity": "1.05593",
    "Charge": "0",
    "CostaldAcentricFactor": "0.42969",
    "WilsonVolume": "0.08314",
    "UniquacR": "3.5517",
    "UniquacQ": "2.68",
    "UniquacQP": "1.78",
    "MatthiasCopemanC3": "7.50049",
    "ChaoSeaderAcentricFactor": "0.442",
    "ChaoSeaderSolubilityParameter": "24632.6",
    "ChaoSeaderLiquidVolume": "0.0889403",
    "UnifacVLE": {
        "group": "1"
    },
    "UnifacLLE": {
        "group": "1"
    },
    "Asog": {
        "group": "1"
    },
    "GCmethod": {
        "group": "1"
    },
    "Umr": {
        "group": "1"
    },
    "ModifiedUnifac": {
        "group": "1"
    },
    "CAS": "108-95-2",
    "Smiles": "c1ccccc1(O)"
}