{
    "LibraryIndex": "1894",
    "CompoundID": "Phosgene",
    "StructureFormula": "COCl2",
    "Family": "71",
    "CriticalTemperature": "455",
    "CriticalPressure": "5674200",
    "CriticalVolume": "0.19",
    "CriticalCompressibility": "0.285",
    "NormalBoilingPointTemperature": "280.71",
    "NormalMeltingPointTemperature": "145.37",
    "TriplePointTemperature": "145.37",
    "TriplePointPressure": "0.920651",
    "MolecularWeight": "98.9161",
    "LiquidVolumeAtNormalBoilingPoint": "0.0597955",
    "AcentricityFactor": "0.201309",
    "RadiusOfGyration": "2.877E-10",
    "SolubilityParameter": "17140",
    "DipoleMoment": "3.9E-30",
    "VanDerWaalsVolume": "0.0349",
    "VanDerWaalsArea": "5.2E+08",
    "HeatOfFormation": "-2.189E+08",
    "GibbsEnergyOfFormation": "-2.0479E+08",
    "AbsEntropy": "283740",
    "HeatOfFusionAtMeltingPoint": "5738400",
    "MatthiasCopemanC1": "0.79377",
    "HeatOfCombustion": "-1.746E+08",
    "SolidDensity": {
        "eqno": "2",
        "A": "18.551",
        "B": "-3.4911E-17",
        "Tmin": "0",
        "Tmax": "9.5"
    },
    "LiquidDensity": {
        "eqno": "105",
        "A": "1.4691",
        "B": "0.2768",
        "C": "455",
        "D": "0.27965",
        "Tmin": "145.37",
        "Tmax": "438.7"
    },
    "VaporPressure": {
        "eqno": "101",
        "A": "81.03568",
        "B": "-5112.106",
        "C": "-9.267047",
        "D": "0.0000119936",
        "E": "2",
        "Tmin": "145.37",
        "Tmax": "455.15"
    },
    "HeatOfVaporization": {
        "eqno": "106",
        "A": "4.367252E+07",
        "B": "1.081822",
        "C": "-0.773774",
        "D": "-0.1937",
        "E": "0.317951",
        "Tmin": "145.37",
        "Tmax": "438.7"
    },
    "SolidHeatCapacityCp": {
        "eqno": "100",
        "A": "-18843",
        "B": "2190.2",
        "C": "-28.32",
        "D": "0.18",
        "E": "-0.00042062",
        "Tmin": "12.61",
        "Tmax": "139.51"
    },
    "LiquidHeatCapacityCp": {
        "eqno": "16",
        "A": "101240",
        "B": "-202030",
        "C": "196.31",
        "D": "2.1704",
        "E": "-0.0015512",
        "Tmin": "139.95",
        "Tmax": "280"
    },
    "IdealGasHeatCapacityCp": {
        "eqno": "16",
        "A": "32506",
        "B": "-282.16",
        "C": "11.124",
        "D": "-0.00017636",
        "E": "4.5651E-08",
        "Tmin": "100",
        "Tmax": "1500"
    },
    "SecondVirialCoefficient": {
        "eqno": "104",
        "A": "0.1073",
        "B": "-108.96",
        "C": "-9.5718",
        "D": "1547.3",
        "E": "-3904.5",
        "Tmin": "227.5",
        "Tmax": "2000"
    },
    "LiquidViscosity": {
        "eqno": "101",
        "A": "-789.51",
        "B": "22474",
        "C": "129.1",
        "D": "-0.00032789",
        "E": "2",
        "Tmin": "224.53",
        "Tmax": "280.71"
    },
    "VaporViscosity": {
        "eqno": "102",
        "A": "6.2229E-07",
        "B": "0.58405",
        "C": "277.35",
        "D": "-6111.6",
        "Tmin": "280.71",
        "Tmax": "1000"
    },
    "LiquidThermalConductivity": {
        "eqno": "16",
        "A": "0.0025061",
        "B": "3.5674",
        "C": "-1.6592",
        "D": "-0.0007952",
        "E": "-0.0000018088",
        "Tmin": "145.37",
        "Tmax": "312.11"
    },
    "VaporThermalConductivity": {
        "eqno": "102",
        "A": "0.000024368",
        "B": "1.1423",
        "C": "246.56",
        "D": "4296.5",
        "Tmin": "145.37",
        "Tmax": "800"
    },
    "SurfaceTension": {
        "eqno": "16",
        "A": "-0.016139",
        "B": "28.561",
        "C": "-2.9789",
        "D": "0.00058557",
        "E": "-0.0000072142",
        "Tmin": "145.37",
        "Tmax": "438.7"
    },
    "RPPHeatCapacityCp": {
        "eqno": "4",
        "A": "24077",
        "B": "146.75",
        "C": "-0.13621",
        "D": "0.00004266",
        "Tmin": "100",
        "Tmax": "1500"
    },
    "RelativeStaticPermittivity": {
        "eqno": "120",
        "A": "-4.371608",
        "B": "-2350",
        "C": "-14.1",
        "Tmin": "254.15",
        "Tmax": "424.15"
    },
    "AntoineVaporPressure": {
        "eqno": "10",
        "A": "21.656",
        "B": "2693.4",
        "C": "-15.019",
        "Tmin": "275.74",
        "Tmax": "406.11"
    },
    "LiquidViscosityRPS": {
        "eqno": "13",
        "A": "-2.2091",
        "B": "-0.031794",
        "C": "0.000046341",
        "Tmin": "224.53",
        "Tmax": "280.71"
    },
    "COSTALDVolume": "0.19221",
    "DiameterLJ": "4.838184E-10",
    "EnergyLJ": "323.8665",
    "FullerVolume": "64.01",
    "MatthiasCopemanC2": "0.01253",
    "Parachor": "0.0271",
    "SpecificGravity": "1.381",
    "Charge": "0",
    "CostaldAcentricFactor": "0.20498",
    "WilsonVolume": "0.0705389",
    "UniquacR": "2.300593",
    "UniquacQ": "2.08",
    "MatthiasCopemanC3": "-0.20305",
    "ChaoSeaderAcentricFactor": "0.1918",
    "ChaoSeaderSolubilityParameter": "17837.2",
    "ChaoSeaderLiquidVolume": "0.0705389",
    "CAS": "75-44-5",
    "Smiles": "ClC(=O)Cl"
}