{
    "LibraryIndex": "202",
    "CompoundID": "Propylene",
    "StructureFormula": "CH2CHCH3",
    "Family": "9",
    "CriticalTemperature": "364.85",
    "CriticalPressure": "4600000",
    "CriticalVolume": "0.185",
    "CriticalCompressibility": "0.281",
    "NormalBoilingPointTemperature": "225.45",
    "NormalMeltingPointTemperature": "87.9",
    "TriplePointTemperature": "87.89",
    "TriplePointPressure": "0.00117",
    "MolecularWeight": "42.07974",
    "LiquidVolumeAtNormalBoilingPoint": "0.0832412",
    "AcentricityFactor": "0.137588",
    "RadiusOfGyration": "2.2311E-10",
    "SolubilityParameter": "11890",
    "DipoleMoment": "1.22E-30",
    "VanDerWaalsVolume": "0.03408",
    "VanDerWaalsArea": "5.06E+08",
    "HeatOfFormation": "2.023E+07",
    "GibbsEnergyOfFormation": "6.264E+07",
    "AbsEntropy": "267000",
    "HeatOfFusionAtMeltingPoint": "2936000",
    "MatthiasCopemanC1": "0.7091",
    "HeatOfCombustion": "-1.9262E+09",
    "SolidDensity": {
        "eqno": "2",
        "A": "20.846",
        "B": "-0.020946",
        "Tmin": "73.15",
        "Tmax": "88.1"
    },
    "LiquidDensity": {
        "eqno": "105",
        "A": "0.98129",
        "B": "0.22226",
        "C": "365.58",
        "D": "0.24039",
        "Tmin": "87.89",
        "Tmax": "365.57"
    },
    "VaporPressure": {
        "eqno": "101",
        "A": "55.10362",
        "B": "-3330.452",
        "C": "-5.40588",
        "D": "0.0000093641",
        "E": "2",
        "Tmin": "87.89",
        "Tmax": "365.57"
    },
    "HeatOfVaporization": {
        "eqno": "106",
        "A": "2.7525E+07",
        "B": "0.61217",
        "C": "-0.41646",
        "D": "0.083772",
        "E": "0.12092",
        "Tmin": "87.89",
        "Tmax": "365"
    },
    "SolidHeatCapacityCp": {
        "eqno": "100",
        "A": "-1062",
        "B": "-87.684",
        "C": "46.783",
        "D": "-0.8344",
        "E": "0.0046648",
        "Tmin": "14",
        "Tmax": "87.89"
    },
    "LiquidHeatCapacityCp": {
        "eqno": "16",
        "A": "79790",
        "B": "300.8",
        "C": "5.1342",
        "D": "0.0095615",
        "E": "0.000012777",
        "Tmin": "87.85",
        "Tmax": "340"
    },
    "IdealGasHeatCapacityCp": {
        "eqno": "16",
        "A": "38965.36",
        "B": "-516.3838",
        "C": "11.75322",
        "D": "0.000509119",
        "E": "-1.771348E-07",
        "Tmin": "80",
        "Tmax": "1500"
    },
    "SecondVirialCoefficient": {
        "eqno": "104",
        "A": "0.10916",
        "B": "-86.745",
        "C": "-4.9899",
        "D": "455.7",
        "E": "-924.7",
        "Tmin": "182.43",
        "Tmax": "1500"
    },
    "LiquidViscosity": {
        "eqno": "101",
        "A": "-54.05485",
        "B": "1437.773",
        "C": "7.536247",
        "D": "-0.0000342733",
        "E": "2",
        "Tmin": "87.89",
        "Tmax": "363"
    },
    "VaporViscosity": {
        "eqno": "102",
        "A": "7.3873E-07",
        "B": "0.54213",
        "C": "262.33",
        "D": "-108.51",
        "Tmin": "87.89",
        "Tmax": "1000"
    },
    "LiquidThermalConductivity": {
        "eqno": "16",
        "A": "-0.044587",
        "B": "22.061",
        "C": "-1.744",
        "D": "0.0015214",
        "E": "-0.0000078162",
        "Tmin": "87.89",
        "Tmax": "340.49"
    },
    "VaporThermalConductivity": {
        "eqno": "102",
        "A": "0.000045373",
        "B": "1.2",
        "C": "415.83",
        "D": "2757.2",
        "Tmin": "87.89",
        "Tmax": "1000"
    },
    "SurfaceTension": {
        "eqno": "16",
        "A": "-0.012171",
        "B": "10.886",
        "C": "-2.9978",
        "D": "-0.00044205",
        "E": "-0.0000097257",
        "Tmin": "87.89",
        "Tmax": "364.85"
    },
    "RPPHeatCapacityCp": {
        "eqno": "4",
        "A": "5083.56",
        "B": "225.639",
        "C": "-0.0999265",
        "D": "0.0000133106",
        "Tmin": "200",
        "Tmax": "1200"
    },
    "RelativeStaticPermittivity": {
        "eqno": "120",
        "A": "-19.10663",
        "B": "-5950",
        "C": "-35.7",
        "Tmin": "208.5945",
        "Tmax": "378.5945"
    },
    "AntoineVaporPressure": {
        "eqno": "10",
        "A": "20.886",
        "B": "1932.7",
        "C": "-18.939",
        "Tmin": "219.08",
        "Tmax": "327.6"
    },
    "LiquidViscosityRPS": {
        "eqno": "13",
        "A": "-0.81493",
        "B": "-0.05511",
        "C": "0.000087429",
        "Tmin": "87.89",
        "Tmax": "333.15"
    },
    "COSTALDVolume": "0.18287",
    "DiameterLJ": "4.877396E-10",
    "EnergyLJ": "246.8143",
    "RacketParameter": "0.2785",
    "FullerVolume": "61.56",
    "MatthiasCopemanC2": "-0.10396",
    "Parachor": "0.0249",
    "SpecificGravity": "0.520955",
    "Charge": "0",
    "CostaldAcentricFactor": "0.1455",
    "WilsonVolume": "0.068956",
    "UniquacR": "2.25",
    "UniquacQ": "2.02",
    "ApiSrkS2": "-0.006163",
    "MatthiasCopemanC3": "0.14989",
    "ChaoSeaderAcentricFactor": "0.1477",
    "ChaoSeaderSolubilityParameter": "13152.4",
    "ChaoSeaderLiquidVolume": "0.068956",
    "UnifacVLE": {
        "group": "1"
    },
    "UnifacLLE": {
        "group": "1"
    },
    "Asog": {
        "group": "1"
    },
    "GCmethod": {
        "group": "1"
    },
    "Umr": {
        "group": "1"
    },
    "ModifiedUnifac": {
        "group": "1"
    },
    "CAS": "115-07-1",
    "Smiles": "C=CC"
}