{
    "LibraryIndex": "1253",
    "CompoundID": "Propionic acid",
    "StructureFormula": "CH3CH2COOH",
    "Family": "50",
    "CriticalTemperature": "604",
    "CriticalPressure": "4530000",
    "CriticalVolume": "0.233",
    "CriticalCompressibility": "0.207",
    "NormalBoilingPointTemperature": "414.31",
    "NormalMeltingPointTemperature": "252.45",
    "TriplePointTemperature": "252.45",
    "TriplePointPressure": "13.1",
    "MolecularWeight": "74.07854",
    "LiquidVolumeAtNormalBoilingPoint": "0.07497",
    "AcentricityFactor": "0.544",
    "RadiusOfGyration": "3.107E-10",
    "SolubilityParameter": "19490",
    "DipoleMoment": "5.84E-30",
    "VanDerWaalsVolume": "0.04342",
    "VanDerWaalsArea": "6.53E+08",
    "HeatOfFormation": "-4.535E+08",
    "GibbsEnergyOfFormation": "-3.568E+08",
    "AbsEntropy": "294900",
    "HeatOfFusionAtMeltingPoint": "1.066E+07",
    "MatthiasCopemanC1": "0.7827",
    "HeatOfCombustion": "-1.395E+09",
    "SolidDensity": {
        "eqno": "2",
        "A": "18.159",
        "B": "-0.0088316",
        "Tmin": "100.98",
        "Tmax": "252.45"
    },
    "LiquidDensity": {
        "eqno": "105",
        "A": "0.88103",
        "B": "0.22848",
        "C": "612.66",
        "D": "0.25898",
        "Tmin": "233.15",
        "Tmax": "612.65"
    },
    "VaporPressure": {
        "eqno": "101",
        "A": "58.42",
        "B": "-7261.2",
        "C": "-4.9024",
        "D": "0.0000010406",
        "E": "2",
        "Tmin": "252.45",
        "Tmax": "600.81"
    },
    "HeatOfVaporization": {
        "eqno": "106",
        "A": "4.8878E+07",
        "B": "3.7167",
        "C": "-10.822",
        "D": "11.498",
        "E": "-4.1176",
        "Tmin": "252.45",
        "Tmax": "600.81"
    },
    "SolidHeatCapacityCp": {
        "eqno": "100",
        "A": "-14676",
        "B": "1223.1",
        "C": "-7.0075",
        "D": "0.021772",
        "E": "-0.000020423",
        "Tmin": "30",
        "Tmax": "252.65"
    },
    "LiquidHeatCapacityCp": {
        "eqno": "16",
        "A": "120710",
        "B": "704.7",
        "C": "1.1886",
        "D": "0.028883",
        "E": "-0.000020278",
        "Tmin": "252.45",
        "Tmax": "414.32"
    },
    "IdealGasHeatCapacityCp": {
        "eqno": "16",
        "A": "47961",
        "B": "-474.81",
        "C": "12.167",
        "D": "0.00020648",
        "E": "-6.6213E-08",
        "Tmin": "252.45",
        "Tmax": "1500"
    },
    "LiquidViscosity": {
        "eqno": "101",
        "A": "-53.41646",
        "B": "2724.985",
        "C": "6.7143",
        "D": "-9.670276E-06",
        "E": "2",
        "Tmin": "252.45",
        "Tmax": "504"
    },
    "VaporViscosity": {
        "eqno": "102",
        "A": "1.6155E-08",
        "B": "1.0459",
        "C": "-115.32",
        "D": "27680",
        "Tmin": "252.45",
        "Tmax": "1000"
    },
    "LiquidThermalConductivity": {
        "eqno": "16",
        "A": "0.067757",
        "B": "-235.87",
        "C": "-0.022659",
        "D": "-0.0065033",
        "E": "0.0000026666",
        "Tmin": "252.45",
        "Tmax": "543.15"
    },
    "VaporThermalConductivity": {
        "eqno": "3",
        "A": "-0.00163685",
        "B": "0.0000207415",
        "C": "7.101384E-08",
        "Tmin": "252.45",
        "Tmax": "616.15"
    },
    "SurfaceTension": {
        "eqno": "16",
        "A": "-0.010977",
        "B": "146.33",
        "C": "-4.0999",
        "D": "0.0031834",
        "E": "-0.0000071046",
        "Tmin": "252.45",
        "Tmax": "600.81"
    },
    "RPPHeatCapacityCp": {
        "eqno": "4",
        "A": "8861",
        "B": "324.07",
        "C": "-0.19078",
        "D": "0.000043643",
        "Tmin": "252.45",
        "Tmax": "1500"
    },
    "RelativeStaticPermittivity": {
        "eqno": "120",
        "A": "-2.46964",
        "B": "-1550",
        "C": "-9.3",
        "Tmin": "268.5945",
        "Tmax": "438.5945"
    },
    "AntoineVaporPressure": {
        "eqno": "10",
        "A": "22.83",
        "B": "4099",
        "C": "-51.622",
        "Tmin": "362.46",
        "Tmax": "527.47"
    },
    "LiquidViscosityRPS": {
        "eqno": "13",
        "A": "0.81021",
        "B": "-0.03741",
        "C": "0.000039093",
        "Tmin": "252.45",
        "Tmax": "414.32"
    },
    "COSTALDVolume": "0.230362",
    "DiameterLJ": "7.600915E-10",
    "EnergyLJ": "135.9701",
    "FullerVolume": "73.78",
    "MatthiasCopemanC2": "4.20003",
    "Parachor": "0.0303",
    "Charge": "0",
    "CostaldAcentricFactor": "0.52",
    "WilsonVolume": "0.0749523",
    "UniquacR": "2.9",
    "UniquacQ": "2.58",
    "MatthiasCopemanC3": "-9.25219",
    "ChaoSeaderAcentricFactor": "0.52",
    "ChaoSeaderSolubilityParameter": "19130.1",
    "ChaoSeaderLiquidVolume": "0.0749523",
    "UnifacVLE": {
        "group": "1"
    },
    "UnifacLLE": {
        "group": "1"
    },
    "Asog": {
        "group": "1"
    },
    "Umr": {
        "group": "1"
    },
    "ModifiedUnifac": {
        "group": "1"
    },
    "CAS": "79-09-4",
    "Smiles": "CCC(=O)O"
}