{
    "LibraryIndex": "2367",
    "CompoundID": "Propylene carbonate",
    "StructureFormula": "-OCH(CH3)CH2OCO-",
    "Family": "45",
    "CriticalTemperature": "778",
    "CriticalPressure": "5410000",
    "CriticalVolume": "0.246",
    "CriticalCompressibility": "0.206",
    "NormalBoilingPointTemperature": "514.9",
    "NormalMeltingPointTemperature": "218.62",
    "TriplePointTemperature": "224.85",
    "TriplePointPressure": "0.00116652",
    "MolecularWeight": "102.0886",
    "LiquidVolumeAtNormalBoilingPoint": "0.0852768",
    "AcentricityFactor": "0.449764",
    "RadiusOfGyration": "3.413E-10",
    "SolubilityParameter": "27300",
    "DipoleMoment": "1.65E-29",
    "VanDerWaalsVolume": "0.04519",
    "VanDerWaalsArea": "5.7E+08",
    "HeatOfFormation": "-6.0116E+08",
    "GibbsEnergyOfFormation": "-4.555E+08",
    "AbsEntropy": "296300",
    "HeatOfFusionAtMeltingPoint": "9617000",
    "MatthiasCopemanC1": "1.09674",
    "HeatOfCombustion": "-1.6678E+09",
    "SolidDensity": {
        "eqno": "100",
        "A": "15.979",
        "B": "-0.0088829",
        "C": "0",
        "D": "0",
        "E": "0",
        "Tmin": "89.94",
        "Tmax": "224.85"
    },
    "LiquidDensity": {
        "eqno": "105",
        "A": "1.122",
        "B": "0.27599",
        "C": "778",
        "D": "0.40344",
        "Tmin": "224.85",
        "Tmax": "778"
    },
    "VaporPressure": {
        "eqno": "101",
        "A": "102.32",
        "B": "-10530",
        "C": "-11.489",
        "D": "0.0000052921",
        "E": "2",
        "Tmin": "224.85",
        "Tmax": "778"
    },
    "HeatOfVaporization": {
        "eqno": "106",
        "A": "3.145898E+08",
        "B": "9.998207",
        "C": "-26.2884",
        "D": "28.38292",
        "E": "-11.49051",
        "Tmin": "224.85",
        "Tmax": "778"
    },
    "SolidHeatCapacityCp": {
        "eqno": "100",
        "A": "3041.6",
        "B": "908.81",
        "C": "-3.5669",
        "D": "0.00717",
        "E": "8.8712E-08",
        "Tmin": "55",
        "Tmax": "224.5"
    },
    "LiquidHeatCapacityCp": {
        "eqno": "16",
        "A": "121750",
        "B": "105.89",
        "C": "6.5083",
        "D": "0.016964",
        "E": "-0.000014577",
        "Tmin": "298.15",
        "Tmax": "425"
    },
    "IdealGasHeatCapacityCp": {
        "eqno": "16",
        "A": "51696",
        "B": "-502.59",
        "C": "12.655",
        "D": "-0.000076494",
        "E": "1.3781E-08",
        "Tmin": "273",
        "Tmax": "1500"
    },
    "SecondVirialCoefficient": {
        "eqno": "104",
        "A": "0.16441",
        "B": "-219.89",
        "C": "-163.04",
        "D": "-737950",
        "E": "1715100",
        "Tmin": "389",
        "Tmax": "1500"
    },
    "LiquidViscosity": {
        "eqno": "101",
        "A": "-818.33",
        "B": "28057",
        "C": "129.62",
        "D": "-0.00022812",
        "E": "2",
        "Tmin": "219",
        "Tmax": "622.4"
    },
    "VaporViscosity": {
        "eqno": "102",
        "A": "4.7119E-08",
        "B": "0.92676",
        "C": "86.628",
        "D": "-9783.8",
        "Tmin": "224.85",
        "Tmax": "1000"
    },
    "LiquidThermalConductivity": {
        "eqno": "16",
        "A": "-0.096241",
        "B": "6.7832",
        "C": "-1.0385",
        "D": "-0.00032841",
        "E": "-6.9782E-07",
        "Tmin": "224.85",
        "Tmax": "514.85"
    },
    "VaporThermalConductivity": {
        "eqno": "102",
        "A": "0.00017416",
        "B": "0.94857",
        "C": "659.28",
        "D": "16364",
        "Tmin": "274",
        "Tmax": "1000"
    },
    "SurfaceTension": {
        "eqno": "116",
        "A": "0",
        "B": "0",
        "C": "0",
        "D": "0.0358859",
        "E": "0.0358859",
        "Tmin": "218.62",
        "Tmax": "778"
    },
    "RPPHeatCapacityCp": {
        "eqno": "4",
        "A": "-6737.7",
        "B": "477.48",
        "C": "-0.32123",
        "D": "0.000080589",
        "Tmin": "273",
        "Tmax": "1500"
    },
    "RelativeStaticPermittivity": {
        "eqno": "120",
        "A": "0.412687",
        "B": "-16994.83",
        "C": "-34.01907",
        "Tmin": "273",
        "Tmax": "778"
    },
    "AntoineVaporPressure": {
        "eqno": "10",
        "A": "21.845",
        "B": "4552.5",
        "C": "-73.662",
        "Tmin": "471.91",
        "Tmax": "690.66"
    },
    "LiquidViscosityRPS": {
        "eqno": "12",
        "A": "-1.8879",
        "B": "-0.012915",
        "Tmin": "219",
        "Tmax": "622.4"
    },
    "COSTALDVolume": "0.239863",
    "DiameterLJ": "7.784834E-10",
    "EnergyLJ": "172.1134",
    "RacketParameter": "0.243726",
    "FullerVolume": "95.79",
    "MatthiasCopemanC2": "0",
    "Parachor": "0.0381263",
    "SpecificGravity": "1.208416",
    "Charge": "0",
    "CostaldAcentricFactor": "0.449764",
    "WilsonVolume": "0.0852768",
    "UniquacR": "3.6024",
    "UniquacQ": "3.006",
    "MatthiasCopemanC3": "0",
    "ChaoSeaderAcentricFactor": "0.449764",
    "ChaoSeaderSolubilityParameter": "27300",
    "ChaoSeaderLiquidVolume": "0.0852768",
    "UnifacVLE": {
        "group": "1"
    },
    "Asog": {
        "group": "1"
    },
    "Umr": {
        "group": "1"
    },
    "CAS": "108-32-7",
    "Smiles": "C1C(C)OC(=O)O1"
}