{
    "LibraryIndex": "3",
    "CompoundID": "Propane",
    "StructureFormula": "CH3CH2CH3",
    "Family": "1",
    "CriticalTemperature": "369.83",
    "CriticalPressure": "4248000",
    "CriticalVolume": "0.2",
    "CriticalCompressibility": "0.276",
    "NormalBoilingPointTemperature": "231.02",
    "NormalMeltingPointTemperature": "85.47",
    "TriplePointTemperature": "85.47",
    "TriplePointPressure": "0.0001685",
    "MolecularWeight": "44.09562",
    "LiquidVolumeAtNormalBoilingPoint": "0.07487",
    "AcentricityFactor": "0.152",
    "RadiusOfGyration": "2.431E-10",
    "SolubilityParameter": "13100",
    "DipoleMoment": "0",
    "VanDerWaalsVolume": "0.03757",
    "VanDerWaalsArea": "5.59E+08",
    "HeatOfFormation": "-1.0468E+08",
    "GibbsEnergyOfFormation": "-2.439E+07",
    "AbsEntropy": "270200",
    "HeatOfFusionAtMeltingPoint": "3524000",
    "MatthiasCopemanC1": "0.75108",
    "HeatOfCombustion": "-2.04311E+09",
    "SolidDensity": {
        "eqno": "2",
        "A": "18.861",
        "B": "-0.020332",
        "Tmin": "23.15",
        "Tmax": "85.48"
    },
    "LiquidDensity": {
        "eqno": "105",
        "A": "1.3186",
        "B": "0.27005",
        "C": "369.86",
        "D": "0.27852",
        "Tmin": "85.47",
        "Tmax": "369.85"
    },
    "VaporPressure": {
        "eqno": "101",
        "A": "55.2725",
        "B": "-3396.946",
        "C": "-5.423393",
        "D": "8.953731E-06",
        "E": "2",
        "Tmin": "85.47",
        "Tmax": "371.25"
    },
    "HeatOfVaporization": {
        "eqno": "106",
        "A": "3.0459E+07",
        "B": "1.2001",
        "C": "-2.1107",
        "D": "1.9732",
        "E": "-0.65316",
        "Tmin": "85.44",
        "Tmax": "369.85"
    },
    "SolidHeatCapacityCp": {
        "eqno": "100",
        "A": "-9928.1",
        "B": "957.89",
        "C": "-0.77533",
        "D": "-0.03376",
        "E": "0.00014632",
        "Tmin": "30",
        "Tmax": "84"
    },
    "LiquidHeatCapacityCp": {
        "eqno": "16",
        "A": "87486",
        "B": "-13371",
        "C": "156.92",
        "D": "-0.5459",
        "E": "0.00068504",
        "Tmin": "85.47",
        "Tmax": "360"
    },
    "IdealGasHeatCapacityCp": {
        "eqno": "16",
        "A": "37840.4",
        "B": "-445.5789",
        "C": "11.83871",
        "D": "0.000653764",
        "E": "-2.200137E-07",
        "Tmin": "80",
        "Tmax": "1500"
    },
    "SecondVirialCoefficient": {
        "eqno": "104",
        "A": "0.12162",
        "B": "-107.8",
        "C": "-3.8081",
        "D": "-15.233",
        "E": "-13.005",
        "Tmin": "122",
        "Tmax": "1849.1"
    },
    "LiquidViscosity": {
        "eqno": "101",
        "A": "-35.23159",
        "B": "966.1472",
        "C": "4.395026",
        "D": "-0.0000255079",
        "E": "2",
        "Tmin": "85.47",
        "Tmax": "363.15"
    },
    "VaporViscosity": {
        "eqno": "102",
        "A": "4.7422E-08",
        "B": "0.90416",
        "C": "-4.7484",
        "D": "478.57",
        "Tmin": "85.47",
        "Tmax": "1000"
    },
    "LiquidThermalConductivity": {
        "eqno": "16",
        "A": "0.02937",
        "B": "-16.323",
        "C": "-1.3313",
        "D": "-0.0012596",
        "E": "-0.000011206",
        "Tmin": "85.47",
        "Tmax": "350"
    },
    "VaporThermalConductivity": {
        "eqno": "102",
        "A": "-1.139",
        "B": "0.10904",
        "C": "-9898.6",
        "D": "-7669600",
        "Tmin": "85.47",
        "Tmax": "1000"
    },
    "SurfaceTension": {
        "eqno": "16",
        "A": "-0.0093557",
        "B": "17.245",
        "C": "-3.1909",
        "D": "0.00024043",
        "E": "-0.000011944",
        "Tmin": "85.44",
        "Tmax": "369.98"
    },
    "RPPHeatCapacityCp": {
        "eqno": "100",
        "A": "31986",
        "B": "42.662",
        "C": "0.49978",
        "D": "-0.00065626",
        "E": "0.000000256",
        "Tmin": "50",
        "Tmax": "1000"
    },
    "RelativeStaticPermittivity": {
        "eqno": "120",
        "A": "-1.381181",
        "B": "-800",
        "C": "-4.8",
        "Tmin": "254.15",
        "Tmax": "424.15"
    },
    "AntoineVaporPressure": {
        "eqno": "10",
        "A": "21.04",
        "B": "2072.9",
        "C": "-13.18",
        "Tmin": "222",
        "Tmax": "332.05"
    },
    "LiquidViscosityRPS": {
        "eqno": "13",
        "A": "-2.343",
        "B": "-0.040027",
        "C": "0.00005517",
        "Tmin": "85.47",
        "Tmax": "363.15"
    },
    "COSTALDVolume": "0.20008",
    "DiameterLJ": "5.114825E-10",
    "EnergyLJ": "234.5244",
    "RacketParameter": "0.2763",
    "FullerVolume": "66.17999",
    "MatthiasCopemanC2": "-0.31941",
    "Parachor": "0.0268",
    "SpecificGravity": "0.506678",
    "Charge": "0",
    "CostaldAcentricFactor": "0.1532",
    "WilsonVolume": "0.0757055",
    "UniquacR": "2.4766",
    "UniquacQ": "2.236",
    "UniquacQP": "2.236",
    "ApiSrkS2": "-0.003791",
    "MatthiasCopemanC3": "0.59617",
    "ChaoSeaderAcentricFactor": "0.1538",
    "ChaoSeaderSolubilityParameter": "13091.2",
    "ChaoSeaderLiquidVolume": "0.084",
    "UnifacVLE": {
        "group": "1"
    },
    "UnifacLLE": {
        "group": "1"
    },
    "Asog": {
        "group": "1"
    },
    "GCmethod": {
        "group": "1"
    },
    "Umr": {
        "group": "1"
    },
    "ModifiedUnifac": {
        "group": "1"
    },
    "CAS": "74-98-6",
    "Smiles": "CCC"
}