{
    "LibraryIndex": "807",
    "CompoundID": "Pyrene",
    "StructureFormula": "C16H10",
    "Family": "20",
    "CriticalTemperature": "936",
    "CriticalPressure": "2610000",
    "CriticalVolume": "0.66",
    "CriticalCompressibility": "0.221",
    "NormalBoilingPointTemperature": "667.95",
    "NormalMeltingPointTemperature": "423.81",
    "TriplePointTemperature": "423.81",
    "TriplePointPressure": "70.0313",
    "MolecularWeight": "202.2506",
    "LiquidVolumeAtNormalBoilingPoint": "0.184923",
    "AcentricityFactor": "0.507416",
    "RadiusOfGyration": "5.152E-10",
    "SolubilityParameter": "19670",
    "DipoleMoment": "0",
    "VanDerWaalsVolume": "0.10904",
    "VanDerWaalsArea": "1.126E+09",
    "HeatOfFormation": "2.25E+08",
    "GibbsEnergyOfFormation": "3.272E+08",
    "AbsEntropy": "402000",
    "HeatOfFusionAtMeltingPoint": "1.736E+07",
    "MatthiasCopemanC1": "1.4078",
    "HeatOfCombustion": "-7.63094E+09",
    "SolidDensity": {
        "eqno": "2",
        "A": "6.2841",
        "B": "7.4227E-17",
        "Tmin": "295.85",
        "Tmax": "305.35"
    },
    "LiquidDensity": {
        "eqno": "105",
        "A": "0.54272",
        "B": "0.27165",
        "C": "936",
        "D": "0.41522",
        "Tmin": "293.15",
        "Tmax": "909.04"
    },
    "VaporPressure": {
        "eqno": "101",
        "A": "68.91405",
        "B": "-11628.85",
        "C": "-6.184331",
        "D": "6.420723E-07",
        "E": "2",
        "Tmin": "423.81",
        "Tmax": "936"
    },
    "HeatOfVaporization": {
        "eqno": "106",
        "A": "9.198843E+07",
        "B": "-0.224752",
        "C": "1.989996",
        "D": "-2.139885",
        "E": "0.666532",
        "Tmin": "423.81",
        "Tmax": "909.04"
    },
    "SolidHeatCapacityCp": {
        "eqno": "100",
        "A": "34428",
        "B": "193.16",
        "C": "2.988",
        "D": "-0.0075382",
        "E": "0.0000090005",
        "Tmin": "100",
        "Tmax": "423.81"
    },
    "LiquidHeatCapacityCp": {
        "eqno": "16",
        "A": "149400",
        "B": "-94.468",
        "C": "11.128",
        "D": "0.0038746",
        "E": "-0.0000019128",
        "Tmin": "423.81",
        "Tmax": "600"
    },
    "IdealGasHeatCapacityCp": {
        "eqno": "16",
        "A": "117680",
        "B": "-754.3",
        "C": "14.068",
        "D": "-0.00069165",
        "E": "2.0484E-07",
        "Tmin": "150",
        "Tmax": "1500"
    },
    "SecondVirialCoefficient": {
        "eqno": "104",
        "A": "0.50411",
        "B": "-846.36",
        "C": "-528.72",
        "D": "-815460",
        "E": "-79126",
        "Tmin": "468",
        "Tmax": "1731"
    },
    "LiquidViscosity": {
        "eqno": "101",
        "A": "-131.9",
        "B": "8597.1",
        "C": "17.746",
        "D": "-0.000010523",
        "E": "2",
        "Tmin": "423.35",
        "Tmax": "667.95"
    },
    "VaporViscosity": {
        "eqno": "102",
        "A": "4.4284E-07",
        "B": "0.52754",
        "C": "289.9",
        "D": "15025",
        "Tmin": "423.81",
        "Tmax": "1000"
    },
    "LiquidThermalConductivity": {
        "eqno": "16",
        "A": "0.10165",
        "B": "-731.42",
        "C": "0.75712",
        "D": "-0.0079846",
        "E": "0.0000028317",
        "Tmin": "288.65",
        "Tmax": "550"
    },
    "VaporThermalConductivity": {
        "eqno": "102",
        "A": "0.000092503",
        "B": "0.97453",
        "C": "647.35",
        "D": "45503",
        "Tmin": "423.81",
        "Tmax": "1000"
    },
    "SurfaceTension": {
        "eqno": "16",
        "A": "-0.007329",
        "B": "346.59",
        "C": "-4.6696",
        "D": "0.0036569",
        "E": "-0.0000046813",
        "Tmin": "423.81",
        "Tmax": "909.04"
    },
    "RPPHeatCapacityCp": {
        "eqno": "4",
        "A": "-33015",
        "B": "969.84",
        "C": "-0.55466",
        "D": "0.00011137",
        "Tmin": "150",
        "Tmax": "1500"
    },
    "AntoineVaporPressure": {
        "eqno": "10",
        "A": "21.723",
        "B": "6010.1",
        "C": "-76.729",
        "Tmin": "573.15",
        "Tmax": "833.56"
    },
    "LiquidViscosityRPS": {
        "eqno": "13",
        "A": "2.0317",
        "B": "-0.026367",
        "C": "0.000016432",
        "Tmin": "423.35",
        "Tmax": "667.95"
    },
    "COSTALDVolume": "0.615194",
    "DiameterLJ": "9.942347E-10",
    "EnergyLJ": "266.6866",
    "RacketParameter": "0.217071",
    "FullerVolume": "222.6",
    "MatthiasCopemanC2": "-1.4079",
    "Parachor": "0.0719",
    "SpecificGravity": "1.27404",
    "Charge": "0",
    "CostaldAcentricFactor": "0.507416",
    "WilsonVolume": "0.17368",
    "UniquacR": "7.187871",
    "UniquacQ": "4.504",
    "MatthiasCopemanC3": "2.1204",
    "ChaoSeaderAcentricFactor": "0.344",
    "ChaoSeaderSolubilityParameter": "20762.5",
    "ChaoSeaderLiquidVolume": "0.17368",
    "UnifacVLE": {
        "group": "6"
    },
    "UnifacLLE": {
        "group": "6"
    },
    "Asog": {
        "group": "6"
    },
    "GCmethod": {
        "group": "6"
    },
    "Umr": {
        "group": "6"
    },
    "ModifiedUnifac": {
        "group": "6"
    },
    "CAS": "129-00-0",
    "Smiles": "C1=CC2=C3C(=C1)C=CC1=CC=CC(=C31)C=C2"
}