{
    "LibraryIndex": "1791",
    "CompoundID": "Pyridine",
    "StructureFormula": "-CHCHCHCHCHN-",
    "Family": "36",
    "CriticalTemperature": "620",
    "CriticalPressure": "5670000",
    "CriticalVolume": "0.254",
    "CriticalCompressibility": "0.267",
    "NormalBoilingPointTemperature": "388.37",
    "NormalMeltingPointTemperature": "231.53",
    "TriplePointTemperature": "231.51",
    "TriplePointPressure": "20.5354",
    "MolecularWeight": "79.0999",
    "LiquidVolumeAtNormalBoilingPoint": "0.08088",
    "AcentricityFactor": "0.242",
    "RadiusOfGyration": "2.938E-10",
    "SolubilityParameter": "21570",
    "DipoleMoment": "7.31E-30",
    "VanDerWaalsVolume": "0.0455",
    "VanDerWaalsArea": "6.65E+08",
    "HeatOfFormation": "1.4037E+08",
    "GibbsEnergyOfFormation": "1.9049E+08",
    "AbsEntropy": "282780",
    "HeatOfFusionAtMeltingPoint": "8280000",
    "MatthiasCopemanC1": "0.87684",
    "HeatOfCombustion": "-2.6721E+09",
    "SolidDensity": {
        "eqno": "2",
        "A": "16.748",
        "B": "-0.0080994",
        "Tmin": "92.6",
        "Tmax": "231.51"
    },
    "LiquidDensity": {
        "eqno": "105",
        "A": "0.67102",
        "B": "0.2057",
        "C": "620",
        "D": "0.26001",
        "Tmin": "231.51",
        "Tmax": "619.95"
    },
    "VaporPressure": {
        "eqno": "101",
        "A": "82.05373",
        "B": "-7269.578",
        "C": "-8.810082",
        "D": "4.816564E-06",
        "E": "2",
        "Tmin": "231.51",
        "Tmax": "619.95"
    },
    "HeatOfVaporization": {
        "eqno": "106",
        "A": "8.4421E+07",
        "B": "2.7457",
        "C": "-5.3078",
        "D": "4.8654",
        "E": "-1.7952",
        "Tmin": "231.48",
        "Tmax": "619.95"
    },
    "SolidHeatCapacityCp": {
        "eqno": "100",
        "A": "-11015",
        "B": "1416.6",
        "C": "-12.963",
        "D": "0.059131",
        "E": "-0.000091912",
        "Tmin": "10",
        "Tmax": "231.51"
    },
    "LiquidHeatCapacityCp": {
        "eqno": "16",
        "A": "101830",
        "B": "209.77",
        "C": "5.3544",
        "D": "0.019802",
        "E": "-0.000018129",
        "Tmin": "231.49",
        "Tmax": "388.41"
    },
    "IdealGasHeatCapacityCp": {
        "eqno": "16",
        "A": "36223",
        "B": "-620.9",
        "C": "12.812",
        "D": "-0.00029215",
        "E": "7.7524E-08",
        "Tmin": "150",
        "Tmax": "1500"
    },
    "SecondVirialCoefficient": {
        "eqno": "104",
        "A": "0.12072",
        "B": "-161.9",
        "C": "-37.161",
        "D": "-139.47",
        "E": "-4487.4",
        "Tmin": "300",
        "Tmax": "1860"
    },
    "LiquidViscosity": {
        "eqno": "101",
        "A": "-82.798",
        "B": "4102.8",
        "C": "11.028",
        "D": "-0.0000093419",
        "E": "2",
        "Tmin": "231.53",
        "Tmax": "550"
    },
    "VaporViscosity": {
        "eqno": "102",
        "A": "5.339E-08",
        "B": "0.90066",
        "C": "85.55",
        "D": "-5060.2",
        "Tmin": "231.51",
        "Tmax": "1000"
    },
    "LiquidThermalConductivity": {
        "eqno": "16",
        "A": "0.018788",
        "B": "-54.761",
        "C": "-1.2916",
        "D": "-0.00062226",
        "E": "-0.0000029942",
        "Tmin": "231.51",
        "Tmax": "563.15"
    },
    "VaporThermalConductivity": {
        "eqno": "102",
        "A": "-7052.4",
        "B": "0.17223",
        "C": "-5.768E+07",
        "D": "-1.624E+11",
        "Tmin": "231.51",
        "Tmax": "1000"
    },
    "SurfaceTension": {
        "eqno": "16",
        "A": "-0.011563",
        "B": "125.96",
        "C": "-3.6937",
        "D": "0.0030162",
        "E": "-0.0000074304",
        "Tmin": "231.51",
        "Tmax": "619.95"
    },
    "RPPHeatCapacityCp": {
        "eqno": "100",
        "A": "-29142",
        "B": "410.64",
        "C": "-0.14517",
        "D": "-0.00013262",
        "E": "9.121E-08",
        "Tmin": "298",
        "Tmax": "1000"
    },
    "RelativeStaticPermittivity": {
        "eqno": "120",
        "A": "-12.907",
        "B": "-6630",
        "C": "-39.78",
        "Tmin": "275",
        "Tmax": "445"
    },
    "AntoineVaporPressure": {
        "eqno": "10",
        "A": "20.746",
        "B": "2867.3",
        "C": "-77.074",
        "Tmin": "372.6",
        "Tmax": "555.37"
    },
    "LiquidViscosityRPS": {
        "eqno": "13",
        "A": "1.2319",
        "B": "-0.040488",
        "C": "0.000043237",
        "Tmin": "231.53",
        "Tmax": "495.96"
    },
    "COSTALDVolume": "0.241529",
    "DiameterLJ": "5.763807E-10",
    "EnergyLJ": "348.9357",
    "RacketParameter": "0.269325",
    "FullerVolume": "77.29",
    "MatthiasCopemanC2": "-0.32187",
    "Parachor": "0.0357",
    "SpecificGravity": "0.98877",
    "Charge": "0",
    "CostaldAcentricFactor": "0.238898",
    "WilsonVolume": "0.0808341",
    "UniquacR": "3",
    "UniquacQ": "2.16",
    "MatthiasCopemanC3": "0.84706",
    "ChaoSeaderAcentricFactor": "0.238898",
    "ChaoSeaderSolubilityParameter": "21804.1",
    "ChaoSeaderLiquidVolume": "0.0808341",
    "UnifacVLE": {
        "group": "1"
    },
    "UnifacLLE": {
        "group": "1"
    },
    "Asog": {
        "group": "1"
    },
    "Umr": {
        "group": "1"
    },
    "ModifiedUnifac": {
        "group": "1"
    },
    "CAS": "110-86-1",
    "Smiles": "n1ccccc1"
}