{
    "LibraryIndex": "520",
    "CompoundID": "Sec-butylbenzene",
    "StructureFormula": "(C6H5)CH(CH3)CH2CH3",
    "Family": "17",
    "CriticalTemperature": "664.54",
    "CriticalPressure": "2930000",
    "CriticalVolume": "0.478",
    "CriticalCompressibility": "0.265",
    "NormalBoilingPointTemperature": "446.48",
    "NormalMeltingPointTemperature": "197.717",
    "TriplePointTemperature": "197.717",
    "TriplePointPressure": "0.00180534",
    "MolecularWeight": "134.2182",
    "LiquidVolumeAtNormalBoilingPoint": "0.156497",
    "AcentricityFactor": "0.279149",
    "RadiusOfGyration": "4.564E-10",
    "SolubilityParameter": "17050",
    "DipoleMoment": "1.3E-30",
    "VanDerWaalsVolume": "0.09019",
    "VanDerWaalsArea": "1.146E+09",
    "HeatOfFormation": "-1.73E+07",
    "GibbsEnergyOfFormation": "1.4523E+08",
    "AbsEntropy": "439600",
    "HeatOfFusionAtMeltingPoint": "9830000",
    "MatthiasCopemanC1": "0.87947",
    "HeatOfCombustion": "-5.563E+09",
    "SolidDensity": {
        "eqno": "2",
        "A": "8.7924",
        "B": "-0.0049215",
        "C": "0",
        "D": "0",
        "E": "0",
        "Tmin": "79.09",
        "Tmax": "197.72"
    },
    "LiquidDensity": {
        "eqno": "105",
        "A": "0.51273",
        "B": "0.25494",
        "C": "664.54",
        "D": "0.28096",
        "Tmin": "197.72",
        "Tmax": "664.54"
    },
    "VaporPressure": {
        "eqno": "101",
        "A": "222.2329",
        "B": "-13854.88",
        "C": "-30.30702",
        "D": "0.0000262583",
        "E": "2",
        "Tmin": "197.72",
        "Tmax": "664.54"
    },
    "HeatOfVaporization": {
        "eqno": "106",
        "A": "3.1793E+07",
        "B": "-4.1563",
        "C": "12.591",
        "D": "-13.449",
        "E": "5.2588",
        "Tmin": "197.72",
        "Tmax": "664.54"
    },
    "SolidHeatCapacityCp": {
        "eqno": "1",
        "A": "214740",
        "Tmin": "0",
        "Tmax": "664.54"
    },
    "LiquidHeatCapacityCp": {
        "eqno": "16",
        "A": "163140",
        "B": "-1794.7",
        "C": "23.385",
        "D": "-0.029199",
        "E": "0.000028",
        "Tmin": "197.72",
        "Tmax": "498.4"
    },
    "IdealGasHeatCapacityCp": {
        "eqno": "16",
        "A": "118430",
        "B": "-784.79",
        "C": "13.745",
        "D": "-0.00050199",
        "E": "1.4393E-07",
        "Tmin": "200",
        "Tmax": "1500"
    },
    "SecondVirialCoefficient": {
        "eqno": "104",
        "A": "0.32727",
        "B": "-453.4",
        "C": "-94.023",
        "D": "22089",
        "E": "-123210",
        "Tmin": "289.72",
        "Tmax": "1500"
    },
    "LiquidViscosity": {
        "eqno": "10",
        "A": "-9.695648",
        "B": "-444.5934",
        "C": "-129.1082",
        "D": "0",
        "E": "0",
        "Tmin": "161.3",
        "Tmax": "550"
    },
    "VaporViscosity": {
        "eqno": "102",
        "A": "0.000001223",
        "B": "0.44278",
        "C": "495.81",
        "D": "151.45",
        "Tmin": "197.72",
        "Tmax": "1000"
    },
    "LiquidThermalConductivity": {
        "eqno": "16",
        "A": "-0.042864",
        "B": "5.3464",
        "C": "-1.6033",
        "D": "-0.00035754",
        "E": "-0.0000011781",
        "Tmin": "197.72",
        "Tmax": "446.48"
    },
    "VaporThermalConductivity": {
        "eqno": "102",
        "A": "0.000022",
        "B": "1.2101",
        "C": "186.5",
        "D": "49434",
        "Tmin": "197.717",
        "Tmax": "1000"
    },
    "SurfaceTension": {
        "eqno": "16",
        "A": "-0.0072678",
        "B": "56.315",
        "C": "-3.3559",
        "D": "0.00098625",
        "E": "-0.0000052989",
        "Tmin": "197.72",
        "Tmax": "664.54"
    },
    "RPPHeatCapacityCp": {
        "eqno": "4",
        "A": "-13101",
        "B": "760.71",
        "C": "-0.41343",
        "D": "0.000082333",
        "Tmin": "200",
        "Tmax": "1500"
    },
    "AntoineVaporPressure": {
        "eqno": "10",
        "A": "20.126",
        "B": "3014.6",
        "C": "-95.941",
        "Tmin": "399.82",
        "Tmax": "590.83"
    },
    "LiquidViscosityRPS": {
        "eqno": "12",
        "A": "3.746",
        "B": "-0.031996",
        "Tmin": "161.3",
        "Tmax": "446.48"
    },
    "COSTALDVolume": "0.495922",
    "DiameterLJ": "7.180576E-10",
    "EnergyLJ": "364.0151",
    "RacketParameter": "0.265",
    "FullerVolume": "173.04",
    "MatthiasCopemanC2": "0.37782",
    "Parachor": "0.0633935",
    "SpecificGravity": "0.86584",
    "Charge": "0",
    "CostaldAcentricFactor": "0.279149",
    "WilsonVolume": "0.156497",
    "UniquacR": "5.9452",
    "UniquacQ": "4.584",
    "ApiSrkS2": "0.01848",
    "MatthiasCopemanC3": "-0.36042",
    "ChaoSeaderAcentricFactor": "0.279149",
    "ChaoSeaderSolubilityParameter": "17050",
    "ChaoSeaderLiquidVolume": "0.156497",
    "UnifacVLE": {
        "group": "1"
    },
    "UnifacLLE": {
        "group": "1"
    },
    "Asog": {
        "group": "1"
    },
    "GCmethod": {
        "group": "1"
    },
    "Umr": {
        "group": "1"
    },
    "ModifiedUnifac": {
        "group": "1"
    },
    "CAS": "135-98-8",
    "Smiles": "c1(C(C)CC)ccccc1"
}