{
    "LibraryIndex": "55",
    "CompoundID": "Squalane",
    "StructureFormula": "((CH3)2CH(C3H6CH(CH3))2C2H4)2",
    "Family": "4",
    "CriticalTemperature": "863",
    "CriticalPressure": "868000",
    "CriticalVolume": "1.64",
    "CriticalCompressibility": "0.198",
    "NormalBoilingPointTemperature": "623.15",
    "NormalMeltingPointTemperature": "235.15",
    "TriplePointTemperature": "235.15",
    "TriplePointPressure": "1.70072E-12",
    "MolecularWeight": "422.8133",
    "LiquidVolumeAtNormalBoilingPoint": "0.526135",
    "AcentricityFactor": "0.915303",
    "RadiusOfGyration": "1.147E-09",
    "SolubilityParameter": "14490",
    "DipoleMoment": "0",
    "VanDerWaalsVolume": "0.31372",
    "VanDerWaalsArea": "4.198E+09",
    "HeatOfFormation": "-6.896E+08",
    "GibbsEnergyOfFormation": "1.868E+08",
    "AbsEntropy": "1272000",
    "HeatOfFusionAtMeltingPoint": "4.7E+07",
    "MatthiasCopemanC1": "1.8",
    "HeatOfCombustion": "-1.85E+10",
    "SolidDensity": {
        "eqno": "100",
        "A": "2.5508",
        "B": "-0.001356",
        "C": "0",
        "D": "0",
        "E": "0",
        "Tmin": "94.06",
        "Tmax": "235.15"
    },
    "LiquidDensity": {
        "eqno": "105",
        "A": "0.15996",
        "B": "0.26223",
        "C": "863",
        "D": "0.38604",
        "Tmin": "235.15",
        "Tmax": "863"
    },
    "VaporPressure": {
        "eqno": "101",
        "A": "518.45",
        "B": "-40342",
        "C": "-70.491",
        "D": "0.00002486",
        "E": "2",
        "Tmin": "235.15",
        "Tmax": "863"
    },
    "HeatOfVaporization": {
        "eqno": "106",
        "A": "1.3274E+08",
        "B": "0.38",
        "C": "0",
        "D": "0",
        "E": "0",
        "Tmin": "235.15",
        "Tmax": "863"
    },
    "SolidHeatCapacityCp": {
        "eqno": "102",
        "A": "21100",
        "B": "0.79267",
        "C": "0",
        "D": "0",
        "Tmin": "50",
        "Tmax": "235.15"
    },
    "LiquidHeatCapacityCp": {
        "eqno": "16",
        "A": "-38276",
        "B": "-113.46",
        "C": "13.728",
        "D": "0.001186",
        "E": "-3.7363E-07",
        "Tmin": "300",
        "Tmax": "720"
    },
    "IdealGasHeatCapacityCp": {
        "eqno": "16",
        "A": "369830",
        "B": "-553.39",
        "C": "14.489",
        "D": "0.00010319",
        "E": "-3.8186E-08",
        "Tmin": "273",
        "Tmax": "1500"
    },
    "SecondVirialCoefficient": {
        "eqno": "104",
        "A": "1.4043",
        "B": "-1190.2",
        "C": "-1952.6",
        "D": "-3198600",
        "E": "3136900",
        "Tmin": "431.5",
        "Tmax": "1500"
    },
    "LiquidViscosity": {
        "eqno": "118",
        "A": "-347.8968",
        "B": "71874.9",
        "C": "53.72611",
        "D": "-0.0000616157",
        "E": "1.3",
        "Tmin": "233.15",
        "Tmax": "720"
    },
    "VaporViscosity": {
        "eqno": "102",
        "A": "2.2128E-07",
        "B": "0.5436",
        "C": "144.2",
        "D": "25.787",
        "Tmin": "235.15",
        "Tmax": "1000"
    },
    "LiquidThermalConductivity": {
        "eqno": "16",
        "A": "-0.045427",
        "B": "7.6198",
        "C": "-1.8982",
        "D": "-0.00026051",
        "E": "-5.9557E-07",
        "Tmin": "235.15",
        "Tmax": "720"
    },
    "VaporThermalConductivity": {
        "eqno": "102",
        "A": "0.000056714",
        "B": "1.0625",
        "C": "551.79",
        "D": "75579",
        "Tmin": "235.15",
        "Tmax": "1000"
    },
    "SurfaceTension": {
        "eqno": "16",
        "A": "-0.068044",
        "B": "-20.425",
        "C": "-1.8668",
        "D": "-0.0015438",
        "E": "7.0904E-07",
        "Tmin": "235.15",
        "Tmax": "863"
    },
    "RPPHeatCapacityCp": {
        "eqno": "4",
        "A": "-51533",
        "B": "2946.8",
        "C": "-1.7001",
        "D": "0.00038015",
        "Tmin": "300",
        "Tmax": "1500"
    },
    "AntoineVaporPressure": {
        "eqno": "10",
        "A": "20.512",
        "B": "5091.9",
        "C": "-151.93",
        "Tmin": "532.15",
        "Tmax": "763.87"
    },
    "LiquidViscosityRPS": {
        "eqno": "12",
        "A": "15.101",
        "B": "-0.059092",
        "Tmin": "233.15",
        "Tmax": "720"
    },
    "COSTALDVolume": "1.64",
    "DiameterLJ": "1.536483E-09",
    "EnergyLJ": "165.546",
    "RacketParameter": "0.198",
    "FullerVolume": "620.22",
    "MatthiasCopemanC2": "0",
    "Parachor": "0.21451",
    "SpecificGravity": "0.810331",
    "Charge": "0",
    "CostaldAcentricFactor": "-0.2",
    "WilsonVolume": "0.526135",
    "UniquacR": "20.6854",
    "UniquacQ": "16.816",
    "MatthiasCopemanC3": "0",
    "ChaoSeaderAcentricFactor": "0.915303",
    "ChaoSeaderSolubilityParameter": "14490",
    "ChaoSeaderLiquidVolume": "0.526135",
    "UnifacVLE": {
        "group": "6"
    },
    "UnifacLLE": {
        "group": "6"
    },
    "Asog": {
        "group": "6"
    },
    "GCmethod": {
        "group": "6"
    },
    "Umr": {
        "group": "6"
    },
    "ModifiedUnifac": {
        "group": "6"
    },
    "CAS": "111-01-3",
    "Smiles": "CC(C)CCCC(C)CCCC(C)CCCCC(C)CCCC(C)CCCC(C)C"
}