{
    "LibraryIndex": "601",
    "CompoundID": "Styrene",
    "StructureFormula": "(C6H5)CHCH2",
    "Family": "18",
    "CriticalTemperature": "636",
    "CriticalPressure": "3840000",
    "CriticalVolume": "0.352",
    "CriticalCompressibility": "0.256",
    "NormalBoilingPointTemperature": "418.31",
    "NormalMeltingPointTemperature": "242.54",
    "TriplePointTemperature": "242.54",
    "TriplePointPressure": "10.6132",
    "MolecularWeight": "104.149",
    "LiquidVolumeAtNormalBoilingPoint": "0.115667",
    "AcentricityFactor": "0.297097",
    "RadiusOfGyration": "3.81E-10",
    "SolubilityParameter": "19020",
    "DipoleMoment": "4.33E-31",
    "VanDerWaalsVolume": "0.06625",
    "VanDerWaalsArea": "8.27E+08",
    "HeatOfFormation": "1.474E+08",
    "GibbsEnergyOfFormation": "2.139E+08",
    "AbsEntropy": "345100",
    "HeatOfFusionAtMeltingPoint": "1.095E+07",
    "MatthiasCopemanC1": "0.93739",
    "HeatOfCombustion": "-4.219E+09",
    "SolidDensity": {
        "eqno": "2",
        "A": "9.7167",
        "B": "-9.6333E-09",
        "Tmin": "93.15",
        "Tmax": "102.65"
    },
    "LiquidDensity": {
        "eqno": "105",
        "A": "0.57789",
        "B": "0.23139",
        "C": "640.77",
        "D": "0.26351",
        "Tmin": "242.54",
        "Tmax": "640.76"
    },
    "VaporPressure": {
        "eqno": "101",
        "A": "399.8489",
        "B": "-19017.34",
        "C": "-58.96286",
        "D": "0.0000747957",
        "E": "2",
        "Tmin": "242.54",
        "Tmax": "636"
    },
    "HeatOfVaporization": {
        "eqno": "106",
        "A": "1.110621E+08",
        "B": "3.429275",
        "C": "-6.061051",
        "D": "4.605581",
        "E": "-1.408226",
        "Tmin": "242.54",
        "Tmax": "615.29"
    },
    "SolidHeatCapacityCp": {
        "eqno": "100",
        "A": "-19432",
        "B": "1905.5",
        "C": "-18.713",
        "D": "0.095712",
        "E": "-0.00015273",
        "Tmin": "15.28",
        "Tmax": "240.03"
    },
    "LiquidHeatCapacityCp": {
        "eqno": "16",
        "A": "134310",
        "B": "-99.916",
        "C": "9.4935",
        "D": "0.0058294",
        "E": "-0.0000013972",
        "Tmin": "242.54",
        "Tmax": "418.31"
    },
    "IdealGasHeatCapacityCp": {
        "eqno": "16",
        "A": "57806.72",
        "B": "-550.4249",
        "C": "12.95376",
        "D": "-0.0000950882",
        "E": "2.294759E-08",
        "Tmin": "100",
        "Tmax": "1500"
    },
    "SecondVirialCoefficient": {
        "eqno": "104",
        "A": "0.21818",
        "B": "-307.77",
        "C": "-59.025",
        "D": "55700",
        "E": "-203800",
        "Tmin": "324",
        "Tmax": "2000"
    },
    "LiquidViscosity": {
        "eqno": "101",
        "A": "-24.717",
        "B": "1824",
        "C": "1.9977",
        "D": "-4.7933E-07",
        "E": "2",
        "Tmin": "242.54",
        "Tmax": "508.8"
    },
    "VaporViscosity": {
        "eqno": "102",
        "A": "3.6968E-08",
        "B": "0.90482",
        "C": "-32.023",
        "D": "10027",
        "Tmin": "242.54",
        "Tmax": "1273.15"
    },
    "LiquidThermalConductivity": {
        "eqno": "16",
        "A": "-0.071817",
        "B": "-30.013",
        "C": "-1.0262",
        "D": "-0.0015623",
        "E": "2.7674E-07",
        "Tmin": "242.54",
        "Tmax": "598.15"
    },
    "VaporThermalConductivity": {
        "eqno": "102",
        "A": "0.010229",
        "B": "0.40085",
        "C": "535.56",
        "D": "704200",
        "Tmin": "242.54",
        "Tmax": "1000"
    },
    "SurfaceTension": {
        "eqno": "16",
        "A": "0.014356",
        "B": "-415.6",
        "C": "0.14176",
        "D": "-0.011441",
        "E": "0.0000063214",
        "Tmin": "273.15",
        "Tmax": "418.31"
    },
    "RPPHeatCapacityCp": {
        "eqno": "4",
        "A": "-36913.76",
        "B": "665.256",
        "C": "-0.485051",
        "D": "0.000140879",
        "Tmin": "200",
        "Tmax": "1500"
    },
    "AntoineVaporPressure": {
        "eqno": "10",
        "A": "20.888",
        "B": "3339.6",
        "C": "-61.724",
        "Tmin": "383",
        "Tmax": "553.17"
    },
    "LiquidViscosityRPS": {
        "eqno": "13",
        "A": "0.77036",
        "B": "-0.039418",
        "C": "0.000042054",
        "Tmin": "242.54",
        "Tmax": "418.31"
    },
    "COSTALDVolume": "0.34819",
    "DiameterLJ": "6.758825E-10",
    "EnergyLJ": "307.6339",
    "FullerVolume": "127.38",
    "MatthiasCopemanC2": "0",
    "Parachor": "0.0486305",
    "SpecificGravity": "0.909306",
    "Charge": "0",
    "CostaldAcentricFactor": "0.24199",
    "WilsonVolume": "0.115667",
    "UniquacR": "4.37",
    "UniquacQ": "3.3",
    "UniquacQP": "3.3",
    "ApiSrkS2": "0.01967",
    "MatthiasCopemanC3": "0",
    "ChaoSeaderAcentricFactor": "0.2302",
    "ChaoSeaderSolubilityParameter": "19015.9",
    "ChaoSeaderLiquidVolume": "0.115667",
    "UnifacVLE": {
        "group": "1"
    },
    "UnifacLLE": {
        "group": "1"
    },
    "Asog": {
        "group": "1"
    },
    "GCmethod": {
        "group": "1"
    },
    "Umr": {
        "group": "1"
    },
    "ModifiedUnifac": {
        "group": "1"
    },
    "CAS": "100-42-5",
    "Smiles": "C=Cc1ccccc1"
}