{
    "LibraryIndex": "1845",
    "CompoundID": "Sulfolane",
    "StructureFormula": "-(CH2)2SO2(CH2)2-",
    "Family": "70",
    "CriticalTemperature": "855",
    "CriticalPressure": "7290000",
    "CriticalVolume": "0.3365",
    "CriticalCompressibility": "0.345074",
    "NormalBoilingPointTemperature": "560.45",
    "NormalMeltingPointTemperature": "300.55",
    "TriplePointTemperature": "300.55",
    "TriplePointPressure": "0.704459",
    "MolecularWeight": "120.1701",
    "LiquidVolumeAtNormalBoilingPoint": "0.0952677",
    "AcentricityFactor": "0.5234",
    "RadiusOfGyration": "3.309E-10",
    "SolubilityParameter": "26110",
    "DipoleMoment": "1.56E-29",
    "VanDerWaalsVolume": "0.06122",
    "VanDerWaalsArea": "8.0E+08",
    "HeatOfFormation": "-3.727E+08",
    "GibbsEnergyOfFormation": "-2.431E+08",
    "AbsEntropy": "347500",
    "HeatOfFusionAtMeltingPoint": "1373000",
    "MatthiasCopemanC1": "1.3",
    "HeatOfCombustion": "-2.397E+09",
    "SolidDensity": {
        "eqno": "2",
        "A": "13.313",
        "B": "-0.0048955",
        "Tmin": "120.22",
        "Tmax": "300.75"
    },
    "LiquidDensity": {
        "eqno": "105",
        "A": "0.89997",
        "B": "0.26972",
        "C": "853",
        "D": "0.30746",
        "Tmin": "300.55",
        "Tmax": "853"
    },
    "VaporPressure": {
        "eqno": "101",
        "A": "112.0995",
        "B": "-12237.47",
        "C": "-12.64533",
        "D": "4.157394E-06",
        "E": "2",
        "Tmin": "273.15",
        "Tmax": "853"
    },
    "HeatOfVaporization": {
        "eqno": "106",
        "A": "1.605659E+08",
        "B": "3.828131",
        "C": "-7.67047",
        "D": "6.739132",
        "E": "-2.353929",
        "Tmin": "300.55",
        "Tmax": "853"
    },
    "SolidHeatCapacityCp": {
        "eqno": "100",
        "A": "-785.07",
        "B": "-58445",
        "C": "597.38",
        "D": "-2.0114",
        "E": "0.0022509",
        "Tmin": "293.15",
        "Tmax": "302.65"
    },
    "LiquidHeatCapacityCp": {
        "eqno": "16",
        "A": "122690",
        "B": "-336.31",
        "C": "11.614",
        "D": "0.0017011",
        "E": "-5.0866E-07",
        "Tmin": "300.55",
        "Tmax": "711.15"
    },
    "IdealGasHeatCapacityCp": {
        "eqno": "16",
        "A": "92921",
        "B": "-999.97",
        "C": "13.757",
        "D": "-0.00093192",
        "E": "0.0000002258",
        "Tmin": "273.15",
        "Tmax": "1500"
    },
    "SecondVirialCoefficient": {
        "eqno": "104",
        "A": "0.21162",
        "B": "-345.47",
        "C": "-201.18",
        "D": "-901260",
        "E": "2067300",
        "Tmin": "426.5",
        "Tmax": "1575.5"
    },
    "LiquidViscosity": {
        "eqno": "101",
        "A": "-56.251",
        "B": "4046.1",
        "C": "6.7894",
        "D": "-0.0000052803",
        "E": "2",
        "Tmin": "273.15",
        "Tmax": "682.4"
    },
    "VaporViscosity": {
        "eqno": "102",
        "A": "2.9074E-08",
        "B": "0.97453",
        "C": "81.209",
        "D": "-9361.1",
        "Tmin": "300.55",
        "Tmax": "1000"
    },
    "LiquidThermalConductivity": {
        "eqno": "16",
        "A": "0.079581",
        "B": "-84.501",
        "C": "-1.1134",
        "D": "-0.0025206",
        "E": "2.9748E-07",
        "Tmin": "273.15",
        "Tmax": "450"
    },
    "VaporThermalConductivity": {
        "eqno": "102",
        "A": "0.000077821",
        "B": "1.0313",
        "C": "528.38",
        "D": "54551",
        "Tmin": "300.55",
        "Tmax": "1000"
    },
    "SurfaceTension": {
        "eqno": "16",
        "A": "-0.014132",
        "B": "101.47",
        "C": "-3.0694",
        "D": "0.00080277",
        "E": "-0.0000027696",
        "Tmin": "273.15",
        "Tmax": "853"
    },
    "RPPHeatCapacityCp": {
        "eqno": "4",
        "A": "-16512",
        "B": "535.08",
        "C": "-0.32273",
        "D": "0.000068445",
        "Tmin": "273.15",
        "Tmax": "1500"
    },
    "RelativeStaticPermittivity": {
        "eqno": "120",
        "A": "4.6",
        "B": "-10000",
        "C": "-45",
        "Tmin": "303",
        "Tmax": "853"
    },
    "AntoineVaporPressure": {
        "eqno": "10",
        "A": "21.827",
        "B": "5019",
        "C": "-73.207",
        "Tmin": "521.53",
        "Tmax": "765.77"
    },
    "LiquidViscosityRPS": {
        "eqno": "13",
        "A": "3.0048",
        "B": "-0.032316",
        "C": "0.000023123",
        "Tmin": "300.55",
        "Tmax": "682.4"
    },
    "COSTALDVolume": "0.327425",
    "DiameterLJ": "7.990302E-10",
    "EnergyLJ": "212.828",
    "RacketParameter": "0.290731",
    "FullerVolume": "117.2",
    "MatthiasCopemanC2": "0",
    "Parachor": "0.0454",
    "SpecificGravity": "1.26697",
    "Charge": "0",
    "CostaldAcentricFactor": "0.377998",
    "WilsonVolume": "0.0952677",
    "UniquacR": "4.0357",
    "UniquacQ": "3.2",
    "UniquacQP": "3.2",
    "MatthiasCopemanC3": "0",
    "ChaoSeaderAcentricFactor": "0.377998",
    "ChaoSeaderSolubilityParameter": "26335.8",
    "ChaoSeaderLiquidVolume": "0.0952677",
    "UnifacVLE": {
        "group": "1"
    },
    "UnifacLLE": {
        "group": "1"
    },
    "Asog": {
        "group": "1"
    },
    "Umr": {
        "group": "1"
    },
    "ModifiedUnifac": {
        "group": "1"
    },
    "CAS": "126-33-0",
    "Smiles": "S1(=O)(=O)CCCC1"
}