{
    "LibraryIndex": "910",
    "CompoundID": "Sulfur dioxide",
    "StructureFormula": "OSO",
    "Family": "24",
    "CriticalTemperature": "430.75",
    "CriticalPressure": "7884100",
    "CriticalVolume": "0.122",
    "CriticalCompressibility": "0.269",
    "NormalBoilingPointTemperature": "263.13",
    "NormalMeltingPointTemperature": "200",
    "TriplePointTemperature": "197.67",
    "TriplePointPressure": "1674.39",
    "MolecularWeight": "64.0638",
    "LiquidVolumeAtNormalBoilingPoint": "0.04688",
    "AcentricityFactor": "0.245381",
    "RadiusOfGyration": "1.66E-10",
    "SolubilityParameter": "12270",
    "DipoleMoment": "5.44E-30",
    "VanDerWaalsVolume": "0.02573",
    "VanDerWaalsArea": "4.03E+08",
    "HeatOfFormation": "-2.9684E+08",
    "GibbsEnergyOfFormation": "-3.0012E+08",
    "AbsEntropy": "248100",
    "HeatOfFusionAtMeltingPoint": "7401000",
    "MatthiasCopemanC1": "0.86399",
    "HeatOfCombustion": "0",
    "SolidDensity": {
        "eqno": "2",
        "A": "32.096",
        "B": "-0.018032",
        "Tmin": "79.07",
        "Tmax": "197.67"
    },
    "LiquidDensity": {
        "eqno": "105",
        "A": "1.8477",
        "B": "0.24254",
        "C": "430.75",
        "D": "0.27051",
        "Tmin": "197.67",
        "Tmax": "430.75"
    },
    "VaporPressure": {
        "eqno": "101",
        "A": "53.52766",
        "B": "-4260.124",
        "C": "-4.670429",
        "D": "0.0000030272",
        "E": "2",
        "Tmin": "195.12",
        "Tmax": "430.75"
    },
    "HeatOfVaporization": {
        "eqno": "106",
        "A": "4.8914E+07",
        "B": "1.8091",
        "C": "-2.9053",
        "D": "2.2271",
        "E": "-0.64793",
        "Tmin": "197.67",
        "Tmax": "430.75"
    },
    "SolidHeatCapacityCp": {
        "eqno": "100",
        "A": "-22618",
        "B": "1707.9",
        "C": "-16.235",
        "D": "0.074564",
        "E": "-0.00012295",
        "Tmin": "30",
        "Tmax": "197.68"
    },
    "LiquidHeatCapacityCp": {
        "eqno": "16",
        "A": "86911",
        "B": "53691",
        "C": "-599.94",
        "D": "2.2025",
        "E": "-0.0025885",
        "Tmin": "197.67",
        "Tmax": "350"
    },
    "IdealGasHeatCapacityCp": {
        "eqno": "16",
        "A": "33406",
        "B": "-516.38",
        "C": "10.524",
        "D": "0.000013143",
        "E": "-6.1535E-08",
        "Tmin": "50",
        "Tmax": "1500"
    },
    "SecondVirialCoefficient": {
        "eqno": "104",
        "A": "0.06722",
        "B": "-59.185",
        "C": "-7.1935",
        "D": "-46.116",
        "E": "-332.32",
        "Tmin": "215.4",
        "Tmax": "1723.2"
    },
    "LiquidViscosity": {
        "eqno": "101",
        "A": "50.887",
        "B": "-1574",
        "C": "-9.4517",
        "D": "1.5898E-07",
        "E": "2",
        "Tmin": "225",
        "Tmax": "400"
    },
    "VaporViscosity": {
        "eqno": "102",
        "A": "0.0000012144",
        "B": "0.53923",
        "C": "315.41",
        "D": "-2659.7",
        "Tmin": "197.67",
        "Tmax": "1250"
    },
    "LiquidThermalConductivity": {
        "eqno": "16",
        "A": "-0.21664",
        "B": "-2.2484",
        "C": "-0.50659",
        "D": "-0.0009424",
        "E": "-0.0000010218",
        "Tmin": "197.67",
        "Tmax": "400"
    },
    "VaporThermalConductivity": {
        "eqno": "102",
        "A": "23.316",
        "B": "-0.95324",
        "C": "-1567.4",
        "D": "1330100",
        "Tmin": "197.67",
        "Tmax": "900"
    },
    "SurfaceTension": {
        "eqno": "16",
        "A": "-0.011604",
        "B": "175.94",
        "C": "-4.6965",
        "D": "0.008615",
        "E": "-0.000020963",
        "Tmin": "197.67",
        "Tmax": "430.75"
    },
    "RPPHeatCapacityCp": {
        "eqno": "4",
        "A": "29454",
        "B": "40.762",
        "C": "-0.015859",
        "D": "0.0000004275",
        "Tmin": "50",
        "Tmax": "1500"
    },
    "RelativeStaticPermittivity": {
        "eqno": "120",
        "A": "-17.87311",
        "B": "-7500",
        "C": "-45",
        "Tmin": "254.15",
        "Tmax": "424.15"
    },
    "AntoineVaporPressure": {
        "eqno": "10",
        "A": "21.673",
        "B": "2268.2",
        "C": "-39.619",
        "Tmin": "259.01",
        "Tmax": "381.68"
    },
    "LiquidViscosityRPS": {
        "eqno": "13",
        "A": "-4.4294",
        "B": "-0.011984",
        "C": "-0.0000026289",
        "Tmin": "225",
        "Tmax": "400"
    },
    "COSTALDVolume": "0.12522",
    "DiameterLJ": "4.04E-10",
    "EnergyLJ": "347",
    "FullerVolume": "41.8",
    "MatthiasCopemanC2": "-0.27539",
    "Parachor": "0.0181",
    "SpecificGravity": "1.39556",
    "Charge": "0",
    "CostaldAcentricFactor": "0.256",
    "WilsonVolume": "0.0438228",
    "UniquacR": "1.6961",
    "UniquacQ": "1.612",
    "MatthiasCopemanC3": "1.1906",
    "ChaoSeaderAcentricFactor": "0.2462",
    "ChaoSeaderSolubilityParameter": "12272.9",
    "ChaoSeaderLiquidVolume": "0.0438228",
    "GCmethod": {
        "group": "1"
    },
    "Umr": {
        "group": "1"
    },
    "CAS": "7446-09-5",
    "Smiles": "O=[S]=O"
}