{
    "LibraryIndex": "521",
    "CompoundID": "Tert-butylbenzene",
    "StructureFormula": "(C6H5)C(CH3)2CH3",
    "Family": "17",
    "CriticalTemperature": "660",
    "CriticalPressure": "2970000",
    "CriticalVolume": "0.46",
    "CriticalCompressibility": "0.266",
    "NormalBoilingPointTemperature": "442.3",
    "NormalMeltingPointTemperature": "215.27",
    "TriplePointTemperature": "215.27",
    "TriplePointPressure": "0.0910321",
    "MolecularWeight": "134.2182",
    "LiquidVolumeAtNormalBoilingPoint": "0.155605",
    "AcentricityFactor": "0.267406",
    "RadiusOfGyration": "4.318E-10",
    "SolubilityParameter": "17130",
    "DipoleMoment": "2.33E-30",
    "VanDerWaalsVolume": "0.09018",
    "VanDerWaalsArea": "1.166E+09",
    "HeatOfFormation": "-2.26E+07",
    "GibbsEnergyOfFormation": "1.4995E+08",
    "AbsEntropy": "401400",
    "HeatOfFusionAtMeltingPoint": "8393000",
    "MatthiasCopemanC1": "0.77053",
    "HeatOfCombustion": "-5.5547E+09",
    "SolidDensity": {
        "eqno": "2",
        "A": "8.8005",
        "B": "-0.0046306",
        "C": "0",
        "D": "0",
        "E": "0",
        "Tmin": "86.11",
        "Tmax": "215.27"
    },
    "LiquidDensity": {
        "eqno": "105",
        "A": "0.50957",
        "B": "0.25071",
        "C": "660",
        "D": "0.30584",
        "Tmin": "215.27",
        "Tmax": "660"
    },
    "VaporPressure": {
        "eqno": "101",
        "A": "87.574",
        "B": "-8352.2",
        "C": "-9.5118",
        "D": "0.0000039953",
        "E": "2",
        "Tmin": "215.27",
        "Tmax": "660"
    },
    "HeatOfVaporization": {
        "eqno": "106",
        "A": "6.3167E+07",
        "B": "0.45262",
        "C": "0",
        "D": "0",
        "E": "0",
        "Tmin": "215.27",
        "Tmax": "660"
    },
    "SolidHeatCapacityCp": {
        "eqno": "100",
        "A": "44844",
        "B": "-193.06",
        "C": "10.001",
        "D": "-0.051599",
        "E": "0.00010323",
        "Tmin": "92.2",
        "Tmax": "215.27"
    },
    "LiquidHeatCapacityCp": {
        "eqno": "16",
        "A": "164930",
        "B": "701.24",
        "C": "1.184",
        "D": "0.037122",
        "E": "-0.000038006",
        "Tmin": "215.27",
        "Tmax": "325"
    },
    "IdealGasHeatCapacityCp": {
        "eqno": "16",
        "A": "113750",
        "B": "-776.86",
        "C": "13.825",
        "D": "-0.0005797",
        "E": "1.6467E-07",
        "Tmin": "200",
        "Tmax": "1500"
    },
    "SecondVirialCoefficient": {
        "eqno": "104",
        "A": "0.31169",
        "B": "-443.18",
        "C": "-79.486",
        "D": "-14909",
        "E": "-8902.2",
        "Tmin": "330",
        "Tmax": "1815"
    },
    "LiquidViscosity": {
        "eqno": "101",
        "A": "-11.7",
        "B": "1364.1",
        "C": "0.038741",
        "D": "-3.8013E-08",
        "E": "2",
        "Tmin": "215.27",
        "Tmax": "550"
    },
    "VaporViscosity": {
        "eqno": "102",
        "A": "7.2957E-07",
        "B": "0.50871",
        "C": "384.51",
        "D": "-23.513",
        "Tmin": "215.27",
        "Tmax": "1000"
    },
    "LiquidThermalConductivity": {
        "eqno": "16",
        "A": "0.052023",
        "B": "-143.3",
        "C": "-0.69673",
        "D": "-0.0057333",
        "E": "0.0000022627",
        "Tmin": "215.27",
        "Tmax": "442.3"
    },
    "VaporThermalConductivity": {
        "eqno": "102",
        "A": "0.000018955",
        "B": "1.2291",
        "C": "130.74",
        "D": "53349",
        "Tmin": "215.27",
        "Tmax": "1000"
    },
    "SurfaceTension": {
        "eqno": "16",
        "A": "-0.0065659",
        "B": "74.035",
        "C": "-3.5401",
        "D": "0.001524",
        "E": "-0.0000060556",
        "Tmin": "215.27",
        "Tmax": "660"
    },
    "RPPHeatCapacityCp": {
        "eqno": "4",
        "A": "-27299",
        "B": "830.02",
        "C": "-0.48525",
        "D": "0.00010401",
        "Tmin": "200",
        "Tmax": "1500"
    },
    "AntoineVaporPressure": {
        "eqno": "10",
        "A": "20.362",
        "B": "3143.6",
        "C": "-86.505",
        "Tmin": "398.09",
        "Tmax": "589.78"
    },
    "LiquidViscosityRPS": {
        "eqno": "12",
        "A": "-2.5924",
        "B": "-0.013801",
        "Tmin": "215.27",
        "Tmax": "442.3"
    },
    "COSTALDVolume": "0.495861",
    "DiameterLJ": "7.057317E-10",
    "EnergyLJ": "366.4637",
    "RacketParameter": "0.266",
    "FullerVolume": "173.04",
    "MatthiasCopemanC2": "0.84715",
    "Parachor": "0.0635105",
    "SpecificGravity": "0.871335",
    "Charge": "0",
    "CostaldAcentricFactor": "0.267406",
    "WilsonVolume": "0.155605",
    "UniquacR": "5.9452",
    "UniquacQ": "4.584",
    "ApiSrkS2": "0.018084",
    "MatthiasCopemanC3": "-0.90376",
    "ChaoSeaderAcentricFactor": "0.267406",
    "ChaoSeaderSolubilityParameter": "17130",
    "ChaoSeaderLiquidVolume": "0.155605",
    "UnifacVLE": {
        "group": "1"
    },
    "UnifacLLE": {
        "group": "1"
    },
    "Asog": {
        "group": "1"
    },
    "GCmethod": {
        "group": "1"
    },
    "Umr": {
        "group": "1"
    },
    "ModifiedUnifac": {
        "group": "1"
    },
    "CAS": "98-06-6",
    "Smiles": "c1(C(C)(C)C)ccccc1"
}