{
    "LibraryIndex": "1821",
    "CompoundID": "Thiophene",
    "StructureFormula": "-S(CH)4-",
    "Family": "42",
    "CriticalTemperature": "580",
    "CriticalPressure": "5660000",
    "CriticalVolume": "0.219",
    "CriticalCompressibility": "0.252",
    "NormalBoilingPointTemperature": "357.31",
    "NormalMeltingPointTemperature": "234.94",
    "TriplePointTemperature": "234.94",
    "TriplePointPressure": "185.638",
    "MolecularWeight": "84.13956",
    "LiquidVolumeAtNormalBoilingPoint": "0.07947",
    "AcentricityFactor": "0.186",
    "RadiusOfGyration": "2.781E-10",
    "SolubilityParameter": "20120",
    "DipoleMoment": "1.8E-30",
    "VanDerWaalsVolume": "0.04354",
    "VanDerWaalsArea": "5.05E+08",
    "HeatOfFormation": "1.1544E+08",
    "GibbsEnergyOfFormation": "1.267E+08",
    "AbsEntropy": "278400",
    "HeatOfFusionAtMeltingPoint": "5085600",
    "MatthiasCopemanC1": "0.84548",
    "HeatOfCombustion": "-2.4352E+09",
    "SolidDensity": {
        "eqno": "2",
        "A": "16.705",
        "B": "-0.010977",
        "Tmin": "88.15",
        "Tmax": "234.94"
    },
    "LiquidDensity": {
        "eqno": "105",
        "A": "0.73395",
        "B": "0.21494",
        "C": "580",
        "D": "0.2288",
        "Tmin": "234.94",
        "Tmax": "579.35"
    },
    "VaporPressure": {
        "eqno": "101",
        "A": "88.26733",
        "B": "-6809.188",
        "C": "-9.975872",
        "D": "0.0000074967",
        "E": "2",
        "Tmin": "233.15",
        "Tmax": "579.35"
    },
    "HeatOfVaporization": {
        "eqno": "106",
        "A": "4.87E+07",
        "B": "0.35468",
        "C": "0.57965",
        "D": "-0.92941",
        "E": "0.39593",
        "Tmin": "234.94",
        "Tmax": "579.35"
    },
    "SolidHeatCapacityCp": {
        "eqno": "100",
        "A": "-9558700",
        "B": "185260",
        "C": "-1322.1",
        "D": "4.147",
        "E": "-0.0048149",
        "Tmin": "169.71",
        "Tmax": "266.15"
    },
    "LiquidHeatCapacityCp": {
        "eqno": "16",
        "A": "84631",
        "B": "-77.085",
        "C": "9.4174",
        "D": "0.0060386",
        "E": "-0.0000042543",
        "Tmin": "234.94",
        "Tmax": "357.31"
    },
    "IdealGasHeatCapacityCp": {
        "eqno": "16",
        "A": "31580",
        "B": "-546.03",
        "C": "12.548",
        "D": "-0.00032144",
        "E": "9.6227E-08",
        "Tmin": "150",
        "Tmax": "1500"
    },
    "SecondVirialCoefficient": {
        "eqno": "104",
        "A": "0.14506",
        "B": "-254.09",
        "C": "-14.715",
        "D": "-955.11",
        "E": "2193.7",
        "Tmin": "280",
        "Tmax": "1500"
    },
    "LiquidViscosity": {
        "eqno": "101",
        "A": "-15.561",
        "B": "1306.6",
        "C": "0.66009",
        "D": "3.2071E-07",
        "E": "2",
        "Tmin": "250",
        "Tmax": "480"
    },
    "VaporViscosity": {
        "eqno": "102",
        "A": "0.0000010722",
        "B": "0.54275",
        "C": "557.27",
        "D": "2874.5",
        "Tmin": "234.94",
        "Tmax": "1000"
    },
    "LiquidThermalConductivity": {
        "eqno": "16",
        "A": "0.024119",
        "B": "-20.319",
        "C": "-1.5338",
        "D": "-0.0014869",
        "E": "-6.6677E-07",
        "Tmin": "234.94",
        "Tmax": "393.15"
    },
    "VaporThermalConductivity": {
        "eqno": "102",
        "A": "0.00013168",
        "B": "0.98328",
        "C": "649.4",
        "D": "-5290.1",
        "Tmin": "234.94",
        "Tmax": "1000"
    },
    "SurfaceTension": {
        "eqno": "16",
        "A": "-0.0069688",
        "B": "140.5",
        "C": "-4.0531",
        "D": "0.0044052",
        "E": "-0.000011144",
        "Tmin": "234.94",
        "Tmax": "579.35"
    },
    "RPPHeatCapacityCp": {
        "eqno": "100",
        "A": "25467",
        "B": "12.638",
        "C": "0.79104",
        "D": "-0.0011748",
        "E": "5.0619E-07",
        "Tmin": "50",
        "Tmax": "1000"
    },
    "RelativeStaticPermittivity": {
        "eqno": "120",
        "A": "-2.19455",
        "B": "-1400",
        "C": "-8.4",
        "Tmin": "269.7056",
        "Tmax": "439.7056"
    },
    "AntoineVaporPressure": {
        "eqno": "10",
        "A": "21.049",
        "B": "2962.4",
        "C": "-46.375",
        "Tmin": "351.52",
        "Tmax": "513.15"
    },
    "LiquidViscosityRPS": {
        "eqno": "13",
        "A": "-0.34111",
        "B": "-0.034802",
        "C": "0.000037492",
        "Tmin": "250",
        "Tmax": "393.15"
    },
    "COSTALDVolume": "0.22777",
    "DiameterLJ": "5.880023E-10",
    "EnergyLJ": "265.0838",
    "RacketParameter": "0.274238",
    "FullerVolume": "95.74",
    "MatthiasCopemanC2": "-0.64559",
    "Parachor": "0.0333",
    "SpecificGravity": "1.071",
    "Charge": "0",
    "CostaldAcentricFactor": "0.19336",
    "WilsonVolume": "0.0794773",
    "UniquacR": "2.8569",
    "UniquacQ": "2.14",
    "MatthiasCopemanC3": "1.5664",
    "ChaoSeaderAcentricFactor": "0.192846",
    "ChaoSeaderSolubilityParameter": "20219.8",
    "ChaoSeaderLiquidVolume": "0.0794773",
    "UnifacVLE": {
        "group": "1"
    },
    "GCmethod": {
        "group": "1"
    },
    "Umr": {
        "group": "1"
    },
    "CAS": "110-02-1",
    "Smiles": "S1C=CC=C1"
}