{
    "LibraryIndex": "211",
    "CompoundID": "Trans-2-pentene",
    "StructureFormula": "CH3CHCHCH2CH3",
    "Family": "10",
    "CriticalTemperature": "474.2",
    "CriticalPressure": "3660000",
    "CriticalVolume": "0.293",
    "CriticalCompressibility": "0.272",
    "NormalBoilingPointTemperature": "309.49",
    "NormalMeltingPointTemperature": "132.89",
    "TriplePointTemperature": "132.89",
    "TriplePointPressure": "0.00574",
    "MolecularWeight": "70.1329",
    "LiquidVolumeAtNormalBoilingPoint": "0.1091",
    "AcentricityFactor": "0.248372",
    "RadiusOfGyration": "3.28E-10",
    "SolubilityParameter": "14970",
    "DipoleMoment": "0",
    "VanDerWaalsVolume": "0.05451",
    "VanDerWaalsArea": "7.75E+08",
    "HeatOfFormation": "-3.11E+07",
    "GibbsEnergyOfFormation": "6.98E+07",
    "AbsEntropy": "343100",
    "HeatOfFusionAtMeltingPoint": "8351700",
    "MatthiasCopemanC1": "0.84315",
    "HeatOfCombustion": "-3.119E+09",
    "SolidDensity": {
        "eqno": "2",
        "A": "14.26",
        "B": "-0.011808",
        "Tmin": "53.16",
        "Tmax": "132.89"
    },
    "LiquidDensity": {
        "eqno": "105",
        "A": "0.9122",
        "B": "0.26869",
        "C": "474.2",
        "D": "0.28253",
        "Tmin": "132.89",
        "Tmax": "474.2"
    },
    "VaporPressure": {
        "eqno": "101",
        "A": "77.717",
        "B": "-5422.6",
        "C": "-8.6403",
        "D": "0.0000092035",
        "E": "2",
        "Tmin": "132.89",
        "Tmax": "474.2"
    },
    "HeatOfVaporization": {
        "eqno": "106",
        "A": "4.3712E+07",
        "B": "0.84137",
        "C": "-0.81266",
        "D": "0.47134",
        "E": "-0.094225",
        "Tmin": "132.89",
        "Tmax": "474.2"
    },
    "SolidHeatCapacityCp": {
        "eqno": "100",
        "A": "-12202",
        "B": "1040.4",
        "C": "1.6545",
        "D": "-0.062663",
        "E": "0.00025784",
        "Tmin": "12.77",
        "Tmax": "132.93"
    },
    "LiquidHeatCapacityCp": {
        "eqno": "16",
        "A": "117170",
        "B": "204.39",
        "C": "5.1039",
        "D": "0.022516",
        "E": "-0.00002152",
        "Tmin": "132.93",
        "Tmax": "310"
    },
    "IdealGasHeatCapacityCp": {
        "eqno": "16",
        "A": "79715",
        "B": "-780.23",
        "C": "12.979",
        "D": "-0.00024552",
        "E": "0.0000000696",
        "Tmin": "200",
        "Tmax": "1500"
    },
    "SecondVirialCoefficient": {
        "eqno": "104",
        "A": "0.17394",
        "B": "-181.62",
        "C": "-16.872",
        "D": "-647.46",
        "E": "513.41",
        "Tmin": "203",
        "Tmax": "1900"
    },
    "LiquidViscosity": {
        "eqno": "101",
        "A": "-10.52",
        "B": "657.15",
        "C": "-0.02693",
        "D": "1.6882E-07",
        "E": "2",
        "Tmin": "132.89",
        "Tmax": "309.49"
    },
    "VaporViscosity": {
        "eqno": "102",
        "A": "1.2614E-07",
        "B": "0.75299",
        "C": "74.21",
        "D": "1685.7",
        "Tmin": "132.89",
        "Tmax": "1000"
    },
    "LiquidThermalConductivity": {
        "eqno": "16",
        "A": "-0.074338",
        "B": "-10.004",
        "C": "-1.1218",
        "D": "-0.0016085",
        "E": "-2.2796E-07",
        "Tmin": "130",
        "Tmax": "309.49"
    },
    "VaporThermalConductivity": {
        "eqno": "102",
        "A": "0.000026669",
        "B": "1.1894",
        "C": "-123.11",
        "D": "111540",
        "Tmin": "132.89",
        "Tmax": "1000"
    },
    "SurfaceTension": {
        "eqno": "16",
        "A": "-0.0093368",
        "B": "32.021",
        "C": "-3.2884",
        "D": "0.0008863",
        "E": "-0.0000084191",
        "Tmin": "132.89",
        "Tmax": "474.2"
    },
    "RPPHeatCapacityCp": {
        "eqno": "4",
        "A": "2246.808",
        "B": "415.4754",
        "C": "-0.211798",
        "D": "0.0000400409",
        "Tmin": "200",
        "Tmax": "1200"
    },
    "AntoineVaporPressure": {
        "eqno": "10",
        "A": "20.965",
        "B": "2590.5",
        "C": "-35.057",
        "Tmin": "284.95",
        "Tmax": "420.31"
    },
    "LiquidViscosityRPS": {
        "eqno": "13",
        "A": "-0.78372",
        "B": "-0.047294",
        "C": "0.000072515",
        "Tmin": "132.89",
        "Tmax": "309.49"
    },
    "COSTALDVolume": "0.29289",
    "DiameterLJ": "5.911778E-10",
    "EnergyLJ": "285.3139",
    "RacketParameter": "0.268765",
    "FullerVolume": "102.6",
    "MatthiasCopemanC2": "0.02405",
    "Parachor": "0.0392",
    "SpecificGravity": "0.652263",
    "Charge": "0",
    "CostaldAcentricFactor": "0.23984",
    "WilsonVolume": "0.109083",
    "UniquacR": "3.5933",
    "UniquacQ": "3.103",
    "ApiSrkS2": "-0.001574",
    "MatthiasCopemanC3": "-0.09675",
    "ChaoSeaderAcentricFactor": "0.209",
    "ChaoSeaderSolubilityParameter": "14420.78",
    "ChaoSeaderLiquidVolume": "0.109",
    "UnifacVLE": {
        "group": "1"
    },
    "UnifacLLE": {
        "group": "1"
    },
    "Asog": {
        "group": "1"
    },
    "GCmethod": {
        "group": "2"
    },
    "Umr": {
        "group": "1"
    },
    "ModifiedUnifac": {
        "group": "1"
    },
    "CAS": "646-04-8",
    "Smiles": "C/C=C/CC"
}