{
    "LibraryIndex": "218",
    "CompoundID": "Trans-2-hexene",
    "StructureFormula": "CH3CHCH(CH2)2CH3",
    "Family": "10",
    "CriticalTemperature": "509.8",
    "CriticalPressure": "3168000",
    "CriticalVolume": "0.345",
    "CriticalCompressibility": "0.258",
    "NormalBoilingPointTemperature": "341.02",
    "NormalMeltingPointTemperature": "140.17",
    "TriplePointTemperature": "140.17",
    "TriplePointPressure": "0.00179",
    "MolecularWeight": "84.15948",
    "LiquidVolumeAtNormalBoilingPoint": "0.125",
    "AcentricityFactor": "0.288635",
    "RadiusOfGyration": "3.616E-10",
    "SolubilityParameter": "15250",
    "DipoleMoment": "0",
    "VanDerWaalsVolume": "0.06474",
    "VanDerWaalsArea": "9.1E+08",
    "HeatOfFormation": "-5.381E+07",
    "GibbsEnergyOfFormation": "7.675E+07",
    "AbsEntropy": "380600",
    "HeatOfFusionAtMeltingPoint": "8255030",
    "MatthiasCopemanC1": "0.9628",
    "HeatOfCombustion": "-3.72648E+09",
    "SolidDensity": {
        "eqno": "2",
        "A": "12.09",
        "B": "-0.0094736",
        "C": "0",
        "D": "0",
        "E": "0",
        "Tmin": "56.07",
        "Tmax": "140.17"
    },
    "LiquidDensity": {
        "eqno": "105",
        "A": "0.7854",
        "B": "0.271",
        "C": "509.8",
        "D": "0.28571",
        "Tmin": "140.17",
        "Tmax": "509.8"
    },
    "VaporPressure": {
        "eqno": "101",
        "A": "102.7613",
        "B": "-6858.249",
        "C": "-12.46469",
        "D": "0.0000134849",
        "E": "2",
        "Tmin": "140.17",
        "Tmax": "509.8"
    },
    "HeatOfVaporization": {
        "eqno": "106",
        "A": "4.402196E+07",
        "B": "0.563356",
        "C": "-0.497314",
        "D": "0.306975",
        "E": "0.0161359",
        "Tmin": "140.17",
        "Tmax": "490.35"
    },
    "SolidHeatCapacityCp": {
        "eqno": "102",
        "A": "2070",
        "B": "0.79267",
        "C": "0",
        "D": "0",
        "Tmin": "50",
        "Tmax": "140.17"
    },
    "LiquidHeatCapacityCp": {
        "eqno": "16",
        "A": "145330",
        "B": "591.61",
        "C": "0.45085",
        "D": "0.040176",
        "E": "-0.000043449",
        "Tmin": "140.17",
        "Tmax": "341.02"
    },
    "IdealGasHeatCapacityCp": {
        "eqno": "16",
        "A": "96839",
        "B": "-758.81",
        "C": "13.112",
        "D": "-0.00018911",
        "E": "4.7057E-08",
        "Tmin": "200",
        "Tmax": "1500"
    },
    "SecondVirialCoefficient": {
        "eqno": "104",
        "A": "0.21635",
        "B": "-262.77",
        "C": "-18.97",
        "D": "-7202.8",
        "E": "15014",
        "Tmin": "256.58",
        "Tmax": "2000"
    },
    "LiquidViscosity": {
        "eqno": "101",
        "A": "-11.296",
        "B": "798.85",
        "C": "0.074688",
        "D": "-2.5765E-07",
        "E": "2",
        "Tmin": "140.17",
        "Tmax": "341.02"
    },
    "VaporViscosity": {
        "eqno": "102",
        "A": "3.5985E-08",
        "B": "0.91455",
        "C": "-9.2013",
        "D": "1687.6",
        "Tmin": "140.17",
        "Tmax": "1000"
    },
    "LiquidThermalConductivity": {
        "eqno": "16",
        "A": "-0.091076",
        "B": "-0.14352",
        "C": "-1.1963",
        "D": "-0.00093801",
        "E": "-0.0000007123",
        "Tmin": "140.17",
        "Tmax": "341.02"
    },
    "VaporThermalConductivity": {
        "eqno": "102",
        "A": "0.000094853",
        "B": "1.0175",
        "C": "2.8366",
        "D": "154410",
        "Tmin": "140.17",
        "Tmax": "1000"
    },
    "SurfaceTension": {
        "eqno": "16",
        "A": "-0.024183",
        "B": "-0.32166",
        "C": "-2.4994",
        "D": "-0.0018373",
        "E": "-0.0000012135",
        "Tmin": "140.17",
        "Tmax": "490.35"
    },
    "RPPHeatCapacityCp": {
        "eqno": "4",
        "A": "19670",
        "B": "436.93",
        "C": "-0.1814",
        "D": "0.000023027",
        "Tmin": "200",
        "Tmax": "1500"
    },
    "AntoineVaporPressure": {
        "eqno": "10",
        "A": "20.853",
        "B": "2752.4",
        "C": "-45.95",
        "Tmin": "308.15",
        "Tmax": "451.44"
    },
    "LiquidViscosityRPS": {
        "eqno": "12",
        "A": "-3.6015",
        "B": "-0.015521",
        "Tmin": "140.17",
        "Tmax": "341.02"
    },
    "COSTALDVolume": "0.347104",
    "DiameterLJ": "6.651318E-10",
    "EnergyLJ": "253.5968",
    "RacketParameter": "0.258",
    "FullerVolume": "123.12",
    "MatthiasCopemanC2": "-0.32659",
    "Parachor": "0.0459435",
    "SpecificGravity": "0.682799",
    "Charge": "0",
    "CostaldAcentricFactor": "0.288635",
    "WilsonVolume": "0.125",
    "UniquacR": "4.2677",
    "UniquacQ": "3.643",
    "ApiSrkS2": "0.004891",
    "MatthiasCopemanC3": "0.67446",
    "ChaoSeaderAcentricFactor": "0.288635",
    "ChaoSeaderSolubilityParameter": "15250",
    "ChaoSeaderLiquidVolume": "0.125",
    "UnifacVLE": {
        "group": "1"
    },
    "UnifacLLE": {
        "group": "1"
    },
    "Asog": {
        "group": "1"
    },
    "GCmethod": {
        "group": "2"
    },
    "Umr": {
        "group": "1"
    },
    "ModifiedUnifac": {
        "group": "1"
    },
    "CAS": "4050-45-7",
    "Smiles": "C/C=C/CCC"
}