{
    "LibraryIndex": "112",
    "CompoundID": "Trans-1,3-dimethylcyclopentane",
    "StructureFormula": "-CH2CH(CH3)CH2CH(CH3)CH2-",
    "Family": "3",
    "CriticalTemperature": "553",
    "CriticalPressure": "3400000",
    "CriticalVolume": "0.3633",
    "CriticalCompressibility": "0.276",
    "NormalBoilingPointTemperature": "363.9",
    "NormalMeltingPointTemperature": "139.18",
    "TriplePointTemperature": "139.18",
    "TriplePointPressure": "0.0000437759",
    "MolecularWeight": "98.18607",
    "LiquidVolumeAtNormalBoilingPoint": "0.13264",
    "AcentricityFactor": "0.253",
    "RadiusOfGyration": "3.644E-10",
    "SolubilityParameter": "15660",
    "DipoleMoment": "0",
    "VanDerWaalsVolume": "0.07045",
    "VanDerWaalsArea": "8.86E+08",
    "HeatOfFormation": "-1.336E+08",
    "GibbsEnergyOfFormation": "4.1463E+07",
    "AbsEntropy": "366810",
    "HeatOfFusionAtMeltingPoint": "7398000",
    "MatthiasCopemanC1": "0.85958",
    "HeatOfCombustion": "-4.279E+09",
    "SolidDensity": {
        "eqno": "2",
        "A": "11.285",
        "B": "-0.0090207",
        "C": "0",
        "D": "0",
        "E": "0",
        "Tmin": "55.67",
        "Tmax": "139.18"
    },
    "LiquidDensity": {
        "eqno": "105",
        "A": "0.77915",
        "B": "0.2805",
        "C": "553",
        "D": "0.30466",
        "Tmin": "139.18",
        "Tmax": "553"
    },
    "VaporPressure": {
        "eqno": "101",
        "A": "72.714",
        "B": "-6038.9",
        "C": "-7.709",
        "D": "0.0000063511",
        "E": "2",
        "Tmin": "139.18",
        "Tmax": "553"
    },
    "HeatOfVaporization": {
        "eqno": "106",
        "A": "6.568557E+07",
        "B": "1.547069",
        "C": "-1.429715",
        "D": "-0.00159084",
        "E": "0.362451",
        "Tmin": "139.18",
        "Tmax": "553"
    },
    "SolidHeatCapacityCp": {
        "eqno": "100",
        "A": "-20650",
        "B": "1946.2",
        "C": "-17.152",
        "D": "0.083188",
        "E": "-0.00011775",
        "Tmin": "16.73",
        "Tmax": "133.18"
    },
    "LiquidHeatCapacityCp": {
        "eqno": "16",
        "A": "128140",
        "B": "215.87",
        "C": "5.2004",
        "D": "0.02446",
        "E": "-0.000024789",
        "Tmin": "139.18",
        "Tmax": "364.88"
    },
    "IdealGasHeatCapacityCp": {
        "eqno": "16",
        "A": "86318",
        "B": "-831.43",
        "C": "13.758",
        "D": "-0.00059782",
        "E": "1.8276E-07",
        "Tmin": "200",
        "Tmax": "1500"
    },
    "SecondVirialCoefficient": {
        "eqno": "104",
        "A": "0.20356",
        "B": "-167.13",
        "C": "-48.07",
        "D": "-1089",
        "E": "-4751.1",
        "Tmin": "276.5",
        "Tmax": "2000"
    },
    "LiquidViscosity": {
        "eqno": "101",
        "A": "-11.152",
        "B": "996.91",
        "C": "0.036374",
        "D": "-1.1545E-07",
        "E": "2",
        "Tmin": "139.18",
        "Tmax": "508.65"
    },
    "VaporViscosity": {
        "eqno": "102",
        "A": "0.0000007023",
        "B": "0.52532",
        "C": "331.02",
        "D": "-5427.4",
        "Tmin": "139.18",
        "Tmax": "1000"
    },
    "LiquidThermalConductivity": {
        "eqno": "16",
        "A": "-0.034026",
        "B": "3.551",
        "C": "-1.6156",
        "D": "-0.00049883",
        "E": "-0.0000017475",
        "Tmin": "139.18",
        "Tmax": "364.88"
    },
    "VaporThermalConductivity": {
        "eqno": "102",
        "A": "0.0021472",
        "B": "0.63073",
        "C": "213.01",
        "D": "445470",
        "Tmin": "139.18",
        "Tmax": "1000"
    },
    "SurfaceTension": {
        "eqno": "16",
        "A": "-0.010805",
        "B": "26.324",
        "C": "-3.0571",
        "D": "-0.00014538",
        "E": "-0.0000048021",
        "Tmin": "139.18",
        "Tmax": "553"
    },
    "RPPHeatCapacityCp": {
        "eqno": "100",
        "A": "-20969",
        "B": "503.34",
        "C": "0.22474",
        "D": "-0.00062957",
        "E": "2.7945E-07",
        "Tmin": "298",
        "Tmax": "1000"
    },
    "AntoineVaporPressure": {
        "eqno": "10",
        "A": "21.192",
        "B": "3238.2",
        "C": "-29.75",
        "Tmin": "335.2",
        "Tmax": "487.66"
    },
    "LiquidViscosityRPS": {
        "eqno": "12",
        "A": "-2.0272",
        "B": "-0.018371",
        "Tmin": "139.18",
        "Tmax": "364.88"
    },
    "COSTALDVolume": "0.379444",
    "DiameterLJ": "6.240833E-10",
    "EnergyLJ": "350.68",
    "RacketParameter": "0.276",
    "FullerVolume": "143.64",
    "MatthiasCopemanC2": "0",
    "Parachor": "0.0502618",
    "SpecificGravity": "0.753434",
    "Charge": "0",
    "CostaldAcentricFactor": "0.253",
    "WilsonVolume": "0.13264",
    "UniquacR": "4.7192",
    "UniquacQ": "3.772",
    "ApiSrkS2": "-0.017759",
    "MatthiasCopemanC3": "0",
    "ChaoSeaderAcentricFactor": "0.253",
    "ChaoSeaderSolubilityParameter": "15660",
    "ChaoSeaderLiquidVolume": "0.13264",
    "UnifacVLE": {
        "group": "2"
    },
    "UnifacLLE": {
        "group": "2"
    },
    "Asog": {
        "group": "2"
    },
    "GCmethod": {
        "group": "2"
    },
    "Umr": {
        "group": "2"
    },
    "ModifiedUnifac": {
        "group": "2"
    },
    "CAS": "1759-58-6",
    "Smiles": "C1[C@](C)([H])(C[C@]([H])(C)(C1))"
}