{
    "LibraryIndex": "154",
    "CompoundID": "Trans-decahydronaphthalene",
    "StructureFormula": "(CH2)4CHCH(CH2)4",
    "Family": "8",
    "CriticalTemperature": "687.05",
    "CriticalPressure": "2837100",
    "CriticalVolume": "0.48",
    "CriticalCompressibility": "0.238",
    "NormalBoilingPointTemperature": "460.46",
    "NormalMeltingPointTemperature": "242.77",
    "TriplePointTemperature": "242.79",
    "TriplePointPressure": "1.14983",
    "MolecularWeight": "138.2499",
    "LiquidVolumeAtNormalBoilingPoint": "0.159325",
    "AcentricityFactor": "0.253611",
    "RadiusOfGyration": "4.314E-10",
    "SolubilityParameter": "17042.7",
    "DipoleMoment": "0",
    "VanDerWaalsVolume": "0.09426",
    "VanDerWaalsArea": "1.137E+09",
    "HeatOfFormation": "-1.8217E+08",
    "GibbsEnergyOfFormation": "7.355E+07",
    "AbsEntropy": "374550",
    "HeatOfFusionAtMeltingPoint": "1.441E+07",
    "MatthiasCopemanC1": "0.92251",
    "HeatOfCombustion": "-5.88088E+09",
    "SolidDensity": {
        "eqno": "2",
        "A": "7.68",
        "B": "-7.1526E-09",
        "Tmin": "242.79",
        "Tmax": "252.29"
    },
    "LiquidDensity": {
        "eqno": "105",
        "A": "0.5599",
        "B": "0.26991",
        "C": "687.05",
        "D": "0.2952",
        "Tmin": "242.79",
        "Tmax": "687.05"
    },
    "VaporPressure": {
        "eqno": "101",
        "A": "112.0059",
        "B": "-9619.314",
        "C": "-13.21808",
        "D": "6.974439E-06",
        "E": "2",
        "Tmin": "242.79",
        "Tmax": "687.05"
    },
    "HeatOfVaporization": {
        "eqno": "106",
        "A": "7.646155E+07",
        "B": "0.918445",
        "C": "0.395142",
        "D": "-2.202434",
        "E": "1.398354",
        "Tmin": "242.79",
        "Tmax": "687.05"
    },
    "SolidHeatCapacityCp": {
        "eqno": "100",
        "A": "248890",
        "B": "-17.544",
        "C": "0.10636",
        "D": "-0.00028659",
        "E": "2.8955E-07",
        "Tmin": "10",
        "Tmax": "252.29"
    },
    "LiquidHeatCapacityCp": {
        "eqno": "16",
        "A": "110470",
        "B": "-81.629",
        "C": "10.313",
        "D": "0.0068781",
        "E": "-0.0000045952",
        "Tmin": "242.79",
        "Tmax": "460.46"
    },
    "IdealGasHeatCapacityCp": {
        "eqno": "16",
        "A": "81351",
        "B": "-707.34",
        "C": "13.793",
        "D": "-0.00018944",
        "E": "2.0365E-08",
        "Tmin": "150",
        "Tmax": "1500"
    },
    "SecondVirialCoefficient": {
        "eqno": "104",
        "A": "0.02487",
        "B": "-133.31",
        "C": "-173.25",
        "D": "-48380",
        "E": "36572",
        "Tmin": "293.15",
        "Tmax": "673.15"
    },
    "LiquidViscosity": {
        "eqno": "101",
        "A": "-47.21",
        "B": "3037.9",
        "C": "5.4682",
        "D": "-0.0000042842",
        "E": "2",
        "Tmin": "242.79",
        "Tmax": "687.05"
    },
    "VaporViscosity": {
        "eqno": "102",
        "A": "2.7061E-07",
        "B": "0.60485",
        "C": "153.09",
        "D": "81.09",
        "Tmin": "460.46",
        "Tmax": "1000"
    },
    "LiquidThermalConductivity": {
        "eqno": "16",
        "A": "0.087771",
        "B": "45.415",
        "C": "-2.1613",
        "D": "-0.0061939",
        "E": "0.0000022159",
        "Tmin": "293.15",
        "Tmax": "460.46"
    },
    "VaporThermalConductivity": {
        "eqno": "102",
        "A": "-13.928",
        "B": "0.65448",
        "C": "-2837300",
        "D": "-2.043E+09",
        "Tmin": "242.79",
        "Tmax": "1000"
    },
    "SurfaceTension": {
        "eqno": "16",
        "A": "-0.0072992",
        "B": "137.99",
        "C": "-3.9696",
        "D": "0.0025043",
        "E": "-0.0000061602",
        "Tmin": "242.79",
        "Tmax": "687.05"
    },
    "RPPHeatCapacityCp": {
        "eqno": "100",
        "A": "-17918",
        "B": "447.75",
        "C": "1.0485",
        "D": "-0.0017445",
        "E": "7.5379E-07",
        "Tmin": "298",
        "Tmax": "1000"
    },
    "AntoineVaporPressure": {
        "eqno": "10",
        "A": "20.316",
        "B": "3335.5",
        "C": "-80.854",
        "Tmin": "413.15",
        "Tmax": "616.9"
    },
    "LiquidViscosityRPS": {
        "eqno": "13",
        "A": "3.8573",
        "B": "-0.048752",
        "C": "0.000050406",
        "Tmin": "242.79",
        "Tmax": "460.46"
    },
    "COSTALDVolume": "0.52096",
    "DiameterLJ": "8.180246E-10",
    "EnergyLJ": "255.6104",
    "RacketParameter": "0.268306",
    "FullerVolume": "200.58",
    "MatthiasCopemanC2": "-0.23673",
    "Parachor": "0.0652",
    "SpecificGravity": "0.87461",
    "Charge": "0",
    "CostaldAcentricFactor": "0.253611",
    "WilsonVolume": "0.159325",
    "UniquacR": "6.289",
    "UniquacQ": "4.776",
    "ApiSrkS2": "0.011339",
    "MatthiasCopemanC3": "0.61125",
    "ChaoSeaderAcentricFactor": "0.253611",
    "ChaoSeaderSolubilityParameter": "17042.7",
    "ChaoSeaderLiquidVolume": "0.159325",
    "UnifacVLE": {
        "group": "2"
    },
    "UnifacLLE": {
        "group": "2"
    },
    "Asog": {
        "group": "2"
    },
    "GCmethod": {
        "group": "2"
    },
    "Umr": {
        "group": "2"
    },
    "ModifiedUnifac": {
        "group": "2"
    },
    "CAS": "493-02-7",
    "Smiles": "C1C[C@@]2(CCCC[C@]2(CC1)([H]))([H])"
}