{
    "LibraryIndex": "110",
    "CompoundID": "Trans-1,2-dimethylcyclopentane",
    "StructureFormula": "-CH(CH3)CH(CH3)(CH2)3-",
    "Family": "6",
    "CriticalTemperature": "553.15",
    "CriticalPressure": "3445050",
    "CriticalVolume": "0.36",
    "CriticalCompressibility": "0.27",
    "NormalBoilingPointTemperature": "365.02",
    "NormalMeltingPointTemperature": "155.58",
    "TriplePointTemperature": "155.58",
    "TriplePointPressure": "0.00329595",
    "MolecularWeight": "98.18607",
    "LiquidVolumeAtNormalBoilingPoint": "0.131474",
    "AcentricityFactor": "0.2692",
    "RadiusOfGyration": "3.607E-10",
    "SolubilityParameter": "15760",
    "DipoleMoment": "0",
    "VanDerWaalsVolume": "0.07045",
    "VanDerWaalsArea": "8.86E+08",
    "HeatOfFormation": "-1.36566E+08",
    "GibbsEnergyOfFormation": "3.84928E+07",
    "AbsEntropy": "366811",
    "HeatOfFusionAtMeltingPoint": "7167190",
    "HeatOfCombustion": "-4.27609E+09",
    "SolidDensity": {
        "eqno": "2",
        "A": "11.201",
        "B": "-0.0080527",
        "C": "0",
        "D": "0",
        "E": "0",
        "Tmin": "62.23",
        "Tmax": "155.58"
    },
    "LiquidDensity": {
        "eqno": "105",
        "A": "0.77149",
        "B": "0.27784",
        "C": "553.15",
        "D": "0.30964",
        "Tmin": "155.58",
        "Tmax": "532.23"
    },
    "VaporPressure": {
        "eqno": "101",
        "A": "89.97",
        "B": "-6815.6",
        "C": "-10.323",
        "D": "0.000008493",
        "E": "2",
        "Tmin": "155.58",
        "Tmax": "553.15"
    },
    "HeatOfVaporization": {
        "eqno": "106",
        "A": "5.4143E+07",
        "B": "0.72069",
        "C": "0.072069",
        "D": "-0.93971",
        "E": "0.57146",
        "Tmin": "155.58",
        "Tmax": "532.23"
    },
    "SolidHeatCapacityCp": {
        "eqno": "1",
        "A": "182070",
        "Tmin": "0",
        "Tmax": "553.15"
    },
    "LiquidHeatCapacityCp": {
        "eqno": "16",
        "A": "-27570",
        "B": "-6.4733",
        "C": "11.325",
        "D": "0.0043522",
        "E": "-0.0000035776",
        "Tmin": "155.58",
        "Tmax": "365.02"
    },
    "IdealGasHeatCapacityCp": {
        "eqno": "16",
        "A": "86316",
        "B": "-831.39",
        "C": "13.757",
        "D": "-0.0005975",
        "E": "1.8263E-07",
        "Tmin": "200",
        "Tmax": "1500"
    },
    "SecondVirialCoefficient": {
        "eqno": "104",
        "A": "0.19751",
        "B": "-158.14",
        "C": "-48.305",
        "D": "-2091.1",
        "E": "-2117",
        "Tmin": "276.5",
        "Tmax": "2000"
    },
    "LiquidViscosity": {
        "eqno": "101",
        "A": "-10.501",
        "B": "979.94",
        "C": "-0.073247",
        "D": "2.6464E-07",
        "E": "2",
        "Tmin": "155.58",
        "Tmax": "508.65"
    },
    "VaporViscosity": {
        "eqno": "102",
        "A": "0.0000015301",
        "B": "0.42849",
        "C": "479.07",
        "D": "3.9541",
        "Tmin": "365.02",
        "Tmax": "1000"
    },
    "LiquidThermalConductivity": {
        "eqno": "16",
        "A": "-0.028286",
        "B": "5.044",
        "C": "-1.6594",
        "D": "-0.00043322",
        "E": "-0.000001941",
        "Tmin": "155.58",
        "Tmax": "365.02"
    },
    "VaporThermalConductivity": {
        "eqno": "102",
        "A": "0.0087025",
        "B": "0.4463",
        "C": "190.1",
        "D": "689820",
        "Tmin": "155.58",
        "Tmax": "1000"
    },
    "SurfaceTension": {
        "eqno": "16",
        "A": "-0.013661",
        "B": "20.324",
        "C": "-2.8967",
        "D": "-0.0007348",
        "E": "-0.0000035142",
        "Tmin": "155.58",
        "Tmax": "532.23"
    },
    "RPPHeatCapacityCp": {
        "eqno": "4",
        "A": "-34423",
        "B": "673.5",
        "C": "-0.34508",
        "D": "0.000064499",
        "Tmin": "200",
        "Tmax": "1500"
    },
    "AntoineVaporPressure": {
        "eqno": "10",
        "A": "20.95",
        "B": "3051.5",
        "C": "-41.265",
        "Tmin": "333.15",
        "Tmax": "490.38"
    },
    "LiquidViscosityRPS": {
        "eqno": "12",
        "A": "-2.5731",
        "B": "-0.016451",
        "Tmin": "155.58",
        "Tmax": "365.02"
    },
    "COSTALDVolume": "0.379444",
    "DiameterLJ": "6.388162E-10",
    "EnergyLJ": "324.0901",
    "RacketParameter": "0.27",
    "FullerVolume": "143.64",
    "Parachor": "0.0500017",
    "SpecificGravity": "0.75615",
    "Charge": "0",
    "CostaldAcentricFactor": "0.2692",
    "WilsonVolume": "0.131474",
    "UniquacR": "4.7192",
    "UniquacQ": "3.772",
    "ApiSrkS2": "-0.009015",
    "ChaoSeaderAcentricFactor": "0.2692",
    "ChaoSeaderSolubilityParameter": "15760",
    "ChaoSeaderLiquidVolume": "0.131474",
    "UnifacVLE": {
        "group": "2"
    },
    "UnifacLLE": {
        "group": "2"
    },
    "Asog": {
        "group": "2"
    },
    "GCmethod": {
        "group": "2"
    },
    "Umr": {
        "group": "2"
    },
    "ModifiedUnifac": {
        "group": "2"
    },
    "CAS": "822-50-4",
    "Smiles": "C1[C@](C)([H])([C@]([H])(C)(CC1))"
}