{
    "LibraryIndex": "1855",
    "CompoundID": "Trichloroacetyl chloride",
    "StructureFormula": "CCl3COCl",
    "Family": "71",
    "CriticalTemperature": "604",
    "CriticalPressure": "4320000",
    "CriticalVolume": "0.3408",
    "CriticalCompressibility": "0.293",
    "NormalBoilingPointTemperature": "391.15",
    "NormalMeltingPointTemperature": "216.2",
    "TriplePointTemperature": "216.2",
    "TriplePointPressure": "5.18177",
    "MolecularWeight": "181.8328",
    "LiquidVolumeAtNormalBoilingPoint": "0.112961",
    "AcentricityFactor": "0.282386",
    "RadiusOfGyration": "4.037E-10",
    "SolubilityParameter": "18010",
    "DipoleMoment": "4.0E-30",
    "VanDerWaalsVolume": "0.06337",
    "VanDerWaalsArea": "8.86E+08",
    "HeatOfFormation": "-2.398E+08",
    "GibbsEnergyOfFormation": "-1.8E+08",
    "AbsEntropy": "360000",
    "HeatOfFusionAtMeltingPoint": "9040000",
    "HeatOfCombustion": "-5.062E+08",
    "SolidDensity": {
        "eqno": "2",
        "A": "12.247",
        "B": "-0.0070805",
        "Tmin": "86.48",
        "Tmax": "216.2"
    },
    "LiquidDensity": {
        "eqno": "105",
        "A": "0.76674",
        "B": "0.26122",
        "C": "604",
        "D": "0.28678",
        "Tmin": "216.2",
        "Tmax": "604"
    },
    "VaporPressure": {
        "eqno": "101",
        "A": "174.9617",
        "B": "-10592.68",
        "C": "-23.45621",
        "D": "0.0000238342",
        "E": "2",
        "Tmin": "216.2",
        "Tmax": "604"
    },
    "HeatOfVaporization": {
        "eqno": "106",
        "A": "1.449329E+08",
        "B": "7.45895",
        "C": "-20.20511",
        "D": "23.04844",
        "E": "-9.793955",
        "Tmin": "216.2",
        "Tmax": "604"
    },
    "LiquidHeatCapacityCp": {
        "eqno": "16",
        "A": "177260",
        "B": "-1933.8",
        "C": "48.92",
        "D": "-0.20004",
        "E": "0.00024097",
        "Tmin": "300",
        "Tmax": "600"
    },
    "IdealGasHeatCapacityCp": {
        "eqno": "16",
        "A": "91870",
        "B": "-696.64",
        "C": "12.555",
        "D": "-0.0015691",
        "E": "6.1156E-07",
        "Tmin": "216.2",
        "Tmax": "1200.15"
    },
    "SecondVirialCoefficient": {
        "eqno": "104",
        "A": "0.25973",
        "B": "-344.77",
        "C": "-15.647",
        "D": "-53770",
        "E": "128480",
        "Tmin": "295",
        "Tmax": "1500"
    },
    "LiquidViscosity": {
        "eqno": "101",
        "A": "-12.095",
        "B": "1867",
        "C": "-0.00010079",
        "D": "1.1286E-09",
        "E": "2",
        "Tmin": "216.2",
        "Tmax": "391.15"
    },
    "VaporViscosity": {
        "eqno": "102",
        "A": "0.0000001265",
        "B": "0.7796",
        "C": "98.46",
        "D": "0.0024692",
        "Tmin": "216.2",
        "Tmax": "1000"
    },
    "LiquidThermalConductivity": {
        "eqno": "16",
        "A": "0.043702",
        "B": "-153.3",
        "C": "-0.62199",
        "D": "-0.0058162",
        "E": "0.0000023649",
        "Tmin": "216.2",
        "Tmax": "391.15"
    },
    "VaporThermalConductivity": {
        "eqno": "102",
        "A": "0.0006898",
        "B": "0.5929",
        "C": "623.5",
        "D": "0.0039481",
        "Tmin": "216.2",
        "Tmax": "1000"
    },
    "SurfaceTension": {
        "eqno": "16",
        "A": "-0.0090309",
        "B": "135.05",
        "C": "-3.8737",
        "D": "0.003953",
        "E": "-0.0000095091",
        "Tmin": "216.2",
        "Tmax": "604"
    },
    "RPPHeatCapacityCp": {
        "eqno": "4",
        "A": "57646",
        "B": "236.17",
        "C": "-0.225",
        "D": "0.000077151",
        "Tmin": "216.2",
        "Tmax": "1200.15"
    },
    "AntoineVaporPressure": {
        "eqno": "10",
        "A": "20.34",
        "B": "2694.7",
        "C": "-85.515",
        "Tmin": "379.48",
        "Tmax": "542.77"
    },
    "LiquidViscosityRPS": {
        "eqno": "13",
        "A": "7.2231",
        "B": "-0.06534",
        "C": "0.000072292",
        "Tmin": "216.2",
        "Tmax": "391.15"
    },
    "COSTALDVolume": "0.33807",
    "DiameterLJ": "5.686395E-10",
    "EnergyLJ": "474.9781",
    "FullerVolume": "121.91",
    "Parachor": "0.0493",
    "SpecificGravity": "1.62992",
    "Charge": "0",
    "CostaldAcentricFactor": "0.34435",
    "WilsonVolume": "0.112737",
    "UniquacR": "4.177323",
    "UniquacQ": "3.544",
    "ChaoSeaderAcentricFactor": "0.347734",
    "ChaoSeaderSolubilityParameter": "18501.6",
    "ChaoSeaderLiquidVolume": "0.112737",
    "CAS": "76-02-8",
    "Smiles": "ClC(Cl)(Cl)C(=O)Cl"
}