{
    "LibraryIndex": "4865",
    "CompoundID": "Trichloroacetaldehyde",
    "StructureFormula": "CCl3CHO",
    "Family": "71",
    "CriticalTemperature": "565",
    "CriticalPressure": "4410000",
    "CriticalVolume": "0.288",
    "CriticalCompressibility": "0.27",
    "NormalBoilingPointTemperature": "370.85",
    "NormalMeltingPointTemperature": "216",
    "TriplePointTemperature": "216",
    "TriplePointPressure": "10.133",
    "MolecularWeight": "147.3877",
    "LiquidVolumeAtNormalBoilingPoint": "0.0983111",
    "AcentricityFactor": "0.332334",
    "RadiusOfGyration": "3.649E-10",
    "SolubilityParameter": "19150",
    "DipoleMoment": "6.54E-30",
    "VanDerWaalsVolume": "0.05519",
    "VanDerWaalsArea": "7.83E+08",
    "HeatOfFormation": "-1.97E+08",
    "GibbsEnergyOfFormation": "-1.48E+08",
    "AbsEntropy": "348000",
    "HeatOfFusionAtMeltingPoint": "0",
    "HeatOfCombustion": "-6.72E+08",
    "SolidDensity": {
        "eqno": "2",
        "A": "14.036",
        "B": "-0.0072767",
        "Tmin": "86.4",
        "Tmax": "216"
    },
    "LiquidDensity": {
        "eqno": "105",
        "A": "0.92352",
        "B": "0.2658",
        "C": "565",
        "D": "0.27915",
        "Tmin": "216",
        "Tmax": "565"
    },
    "VaporPressure": {
        "eqno": "101",
        "A": "104.1738",
        "B": "-7649.009",
        "C": "-12.42192",
        "D": "0.0000106892",
        "E": "2",
        "Tmin": "216",
        "Tmax": "565"
    },
    "HeatOfVaporization": {
        "eqno": "106",
        "A": "6.2611E+07",
        "B": "1.7765",
        "C": "-3.981",
        "D": "4.442",
        "E": "-1.8138",
        "Tmin": "216",
        "Tmax": "565"
    },
    "LiquidHeatCapacityCp": {
        "eqno": "16",
        "A": "141170",
        "B": "-5.956",
        "C": "6.555",
        "D": "0.014383",
        "E": "-0.000012896",
        "Tmin": "282.5",
        "Tmax": "422.5"
    },
    "IdealGasHeatCapacityCp": {
        "eqno": "16",
        "A": "75534",
        "B": "-497.17",
        "C": "11.711",
        "D": "-0.00021306",
        "E": "5.7567E-08",
        "Tmin": "216",
        "Tmax": "1200"
    },
    "SecondVirialCoefficient": {
        "eqno": "104",
        "A": "0.17202",
        "B": "-198.18",
        "C": "-54.361",
        "D": "1512",
        "E": "-47122",
        "Tmin": "282.5",
        "Tmax": "2000"
    },
    "LiquidViscosity": {
        "eqno": "101",
        "A": "-15.452",
        "B": "1500.4",
        "C": "0.62119",
        "D": "1.0267E-07",
        "E": "2",
        "Tmin": "225",
        "Tmax": "465"
    },
    "VaporViscosity": {
        "eqno": "102",
        "A": "1.9624E-07",
        "B": "0.76217",
        "C": "181.59",
        "D": "-7289.4",
        "Tmin": "216",
        "Tmax": "1000"
    },
    "LiquidThermalConductivity": {
        "eqno": "16",
        "A": "-0.0058147",
        "B": "-49.103",
        "C": "-1.1431",
        "D": "-0.0024848",
        "E": "-2.7456E-08",
        "Tmin": "216",
        "Tmax": "370.85"
    },
    "VaporThermalConductivity": {
        "eqno": "102",
        "A": "0.00037396",
        "B": "0.73494",
        "C": "540.31",
        "D": "2896.6",
        "Tmin": "216",
        "Tmax": "1000"
    },
    "SurfaceTension": {
        "eqno": "16",
        "A": "-0.010804",
        "B": "115.62",
        "C": "-3.806",
        "D": "0.0033787",
        "E": "-0.0000089296",
        "Tmin": "216",
        "Tmax": "565"
    },
    "RPPHeatCapacityCp": {
        "eqno": "4",
        "A": "51330",
        "B": "196.28",
        "C": "-0.15434",
        "D": "0.000045652",
        "Tmin": "216",
        "Tmax": "1200"
    },
    "AntoineVaporPressure": {
        "eqno": "10",
        "A": "21.369",
        "B": "3131.8",
        "C": "-52.731",
        "Tmin": "344.58",
        "Tmax": "495.2"
    },
    "LiquidViscosityRPS": {
        "eqno": "13",
        "A": "2.5668",
        "B": "-0.047882",
        "C": "0.00005446",
        "Tmin": "225",
        "Tmax": "370.85"
    },
    "COSTALDVolume": "0.294123",
    "DiameterLJ": "5.930245E-10",
    "EnergyLJ": "331.033",
    "RacketParameter": "0.261398",
    "FullerVolume": "103.22",
    "Parachor": "0.0408",
    "SpecificGravity": "1.515",
    "Charge": "0",
    "CostaldAcentricFactor": "0.332283",
    "WilsonVolume": "0.0983111",
    "UniquacR": "3.638102",
    "UniquacQ": "3.132",
    "ChaoSeaderAcentricFactor": "0.332283",
    "ChaoSeaderSolubilityParameter": "19153.3",
    "ChaoSeaderLiquidVolume": "0.0983111",
    "UnifacVLE": {
        "group": "1"
    },
    "Umr": {
        "group": "1"
    },
    "CAS": "75-87-6",
    "Smiles": "C([Cl])([Cl])([Cl])C=O"
}