{
    "LibraryIndex": "1203",
    "CompoundID": "Triethylene glycol",
    "StructureFormula": "HOCH2CH2OCH2CH2OCH2CH2OH",
    "Family": "49",
    "CriticalTemperature": "769.5",
    "CriticalPressure": "3320000",
    "CriticalVolume": "0.443",
    "CriticalCompressibility": "0.23",
    "NormalBoilingPointTemperature": "561.5",
    "NormalMeltingPointTemperature": "265.95",
    "TriplePointTemperature": "265.95",
    "TriplePointPressure": "0.000327262",
    "MolecularWeight": "150.173",
    "LiquidVolumeAtNormalBoilingPoint": "0.134127",
    "AcentricityFactor": "0.755952",
    "RadiusOfGyration": "4.71E-10",
    "SolubilityParameter": "25710",
    "DipoleMoment": "9.97E-30",
    "VanDerWaalsVolume": "0.08486",
    "VanDerWaalsArea": "1.22E+09",
    "HeatOfFormation": "-7.251E+08",
    "GibbsEnergyOfFormation": "-4.86E+08",
    "AbsEntropy": "556500",
    "HeatOfFusionAtMeltingPoint": "1.82E+07",
    "MatthiasCopemanC1": "1.6",
    "HeatOfCombustion": "-3.2498E+09",
    "SolidDensity": {
        "eqno": "2",
        "A": "9.6467",
        "B": "-0.0040367",
        "Tmin": "106.38",
        "Tmax": "265.95"
    },
    "LiquidDensity": {
        "eqno": "105",
        "A": "0.60697",
        "B": "0.26444",
        "C": "769.5",
        "D": "0.24805",
        "Tmin": "265.95",
        "Tmax": "769.5"
    },
    "VaporPressure": {
        "eqno": "101",
        "A": "-148.0973",
        "B": "-1446.895",
        "C": "26.95817",
        "D": "-0.0000266538",
        "E": "2",
        "Tmin": "265.95",
        "Tmax": "769.5"
    },
    "HeatOfVaporization": {
        "eqno": "106",
        "A": "1.392895E+08",
        "B": "1.422819",
        "C": "-1.625802",
        "D": "1.207667",
        "E": "-0.563316",
        "Tmin": "265.95",
        "Tmax": "769.5"
    },
    "SolidHeatCapacityCp": {
        "eqno": "100",
        "A": "7555",
        "B": "958.48",
        "C": "-1.8743",
        "D": "0.0048051",
        "E": "-0.0000054467",
        "Tmin": "50",
        "Tmax": "265.95"
    },
    "LiquidHeatCapacityCp": {
        "eqno": "16",
        "A": "234210",
        "B": "-89.741",
        "C": "10.328",
        "D": "0.0058089",
        "E": "-0.0000030565",
        "Tmin": "265.79",
        "Tmax": "666.48"
    },
    "IdealGasHeatCapacityCp": {
        "eqno": "16",
        "A": "88442",
        "B": "-417.2",
        "C": "12.845",
        "D": "0.00037163",
        "E": "-1.3999E-07",
        "Tmin": "265.95",
        "Tmax": "1500"
    },
    "SecondVirialCoefficient": {
        "eqno": "104",
        "A": "0.26304",
        "B": "-239.99",
        "C": "-308.91",
        "D": "-754640",
        "E": "1516300",
        "Tmin": "384.75",
        "Tmax": "1950"
    },
    "LiquidViscosity": {
        "eqno": "101",
        "A": "-354.9911",
        "B": "16471.68",
        "C": "54.55389",
        "D": "-0.0481353",
        "E": "1",
        "Tmin": "265.95",
        "Tmax": "769.5"
    },
    "VaporViscosity": {
        "eqno": "102",
        "A": "8.2508E-08",
        "B": "0.8077",
        "C": "134.01",
        "D": "-6653.4",
        "Tmin": "265.8",
        "Tmax": "1000"
    },
    "LiquidThermalConductivity": {
        "eqno": "16",
        "A": "-0.089806",
        "B": "0.43077",
        "C": "-1.6802",
        "D": "0.0024003",
        "E": "-0.0000033612",
        "Tmin": "265.95",
        "Tmax": "666.48"
    },
    "VaporThermalConductivity": {
        "eqno": "102",
        "A": "0.0000048035",
        "B": "1.4025",
        "C": "164.43",
        "D": "15114",
        "Tmin": "199.82",
        "Tmax": "1000"
    },
    "SurfaceTension": {
        "eqno": "16",
        "A": "-0.053881",
        "B": "-24.705",
        "C": "-1.9439",
        "D": "-0.00084717",
        "E": "-3.9189E-07",
        "Tmin": "293.15",
        "Tmax": "548.15"
    },
    "RPPHeatCapacityCp": {
        "eqno": "4",
        "A": "14259",
        "B": "713.43",
        "C": "-0.4134",
        "D": "0.000089194",
        "Tmin": "265.95",
        "Tmax": "1500"
    },
    "RelativeStaticPermittivity": {
        "eqno": "120",
        "A": "-12.58412",
        "B": "-10424.37",
        "C": "-5.193019",
        "Tmin": "268",
        "Tmax": "769"
    },
    "AntoineVaporPressure": {
        "eqno": "10",
        "A": "20.583",
        "B": "3555.2",
        "C": "-168.11",
        "Tmin": "463.15",
        "Tmax": "689.99"
    },
    "LiquidViscosityRPS": {
        "eqno": "13",
        "A": "12.563",
        "B": "-0.071122",
        "C": "0.000060989",
        "Tmin": "265.95",
        "Tmax": "615.6"
    },
    "COSTALDVolume": "0.463689",
    "DiameterLJ": "8.297988E-10",
    "EnergyLJ": "253.1291",
    "RacketParameter": "0.240468",
    "FullerVolume": "152.18",
    "MatthiasCopemanC2": "0",
    "Parachor": "0.0620681",
    "SpecificGravity": "1.12845",
    "Charge": "0",
    "CostaldAcentricFactor": "0.758714",
    "WilsonVolume": "0.134187",
    "UniquacR": "6.5342",
    "UniquacQ": "6.12",
    "MatthiasCopemanC3": "0",
    "ChaoSeaderAcentricFactor": "0.758714",
    "ChaoSeaderSolubilityParameter": "23437.3",
    "ChaoSeaderLiquidVolume": "0.134187",
    "UnifacVLE": {
        "group": "2"
    },
    "UnifacLLE": {
        "group": "2"
    },
    "Asog": {
        "group": "2"
    },
    "GCmethod": {
        "group": "2"
    },
    "Umr": {
        "group": "2"
    },
    "ModifiedUnifac": {
        "group": "2"
    },
    "CAS": "112-27-6",
    "Smiles": "OCCOCCOCCO"
}