{
    "LibraryIndex": "1504",
    "CompoundID": "Vinyl chloride",
    "StructureFormula": "CH2CHCl",
    "Family": "65",
    "CriticalTemperature": "432",
    "CriticalPressure": "5670000",
    "CriticalVolume": "0.179",
    "CriticalCompressibility": "0.283",
    "NormalBoilingPointTemperature": "259.25",
    "NormalMeltingPointTemperature": "119.36",
    "TriplePointTemperature": "119.36",
    "TriplePointPressure": "0.0191781",
    "MolecularWeight": "62.49822",
    "LiquidVolumeAtNormalBoilingPoint": "0.0692236",
    "AcentricityFactor": "0.100107",
    "RadiusOfGyration": "2.049E-10",
    "SolubilityParameter": "15960",
    "DipoleMoment": "4.84E-30",
    "VanDerWaalsVolume": "0.03203",
    "VanDerWaalsArea": "4.74E+08",
    "HeatOfFormation": "2.845E+07",
    "GibbsEnergyOfFormation": "4.195E+07",
    "AbsEntropy": "273540",
    "HeatOfFusionAtMeltingPoint": "4744000",
    "MatthiasCopemanC1": "0.66941",
    "HeatOfCombustion": "-1.178E+09",
    "SolidDensity": {
        "eqno": "2",
        "A": "23.453",
        "B": "-0.021899",
        "Tmin": "47.74",
        "Tmax": "119.36"
    },
    "LiquidDensity": {
        "eqno": "105",
        "A": "1.4882",
        "B": "0.26866",
        "C": "432",
        "D": "0.2693",
        "Tmin": "119.36",
        "Tmax": "415.55"
    },
    "VaporPressure": {
        "eqno": "101",
        "A": "30.50309",
        "B": "-3204.111",
        "C": "-1.15716",
        "D": "-3.151817E-06",
        "E": "2",
        "Tmin": "119.36",
        "Tmax": "432"
    },
    "HeatOfVaporization": {
        "eqno": "106",
        "A": "2.6581E+07",
        "B": "-2.1189",
        "C": "8.303",
        "D": "-9.8551",
        "E": "4.0685",
        "Tmin": "119.36",
        "Tmax": "415.55"
    },
    "SolidHeatCapacityCp": {
        "eqno": "1",
        "A": "69150",
        "Tmin": "293",
        "Tmax": "4"
    },
    "LiquidHeatCapacityCp": {
        "eqno": "16",
        "A": "29928",
        "B": "167.46",
        "C": "5.6386",
        "D": "0.023319",
        "E": "-0.000024747",
        "Tmin": "200",
        "Tmax": "400"
    },
    "IdealGasHeatCapacityCp": {
        "eqno": "16",
        "A": "39013",
        "B": "-667.91",
        "C": "11.935",
        "D": "-0.00030895",
        "E": "9.1245E-08",
        "Tmin": "200",
        "Tmax": "1500"
    },
    "SecondVirialCoefficient": {
        "eqno": "104",
        "A": "0.098959",
        "B": "-101.3",
        "C": "-7.5955",
        "D": "2613.5",
        "E": "-5619.5",
        "Tmin": "216",
        "Tmax": "1962"
    },
    "LiquidViscosity": {
        "eqno": "101",
        "A": "-3.586",
        "B": "386.19",
        "C": "-1.1014",
        "D": "-9.1164E-07",
        "E": "2",
        "Tmin": "130",
        "Tmax": "400"
    },
    "VaporViscosity": {
        "eqno": "102",
        "A": "4.1288E-07",
        "B": "0.63726",
        "C": "118.97",
        "D": "5390.5",
        "Tmin": "119.36",
        "Tmax": "1000"
    },
    "LiquidThermalConductivity": {
        "eqno": "16",
        "A": "0.060341",
        "B": "155.36",
        "C": "-4.6785",
        "D": "0.015523",
        "E": "-0.000038165",
        "Tmin": "119.36",
        "Tmax": "377.59"
    },
    "VaporThermalConductivity": {
        "eqno": "102",
        "A": "-260.51",
        "B": "0.58623",
        "C": "-1.7838E+08",
        "D": "-1.6691E+09",
        "Tmin": "119.36",
        "Tmax": "1000"
    },
    "SurfaceTension": {
        "eqno": "16",
        "A": "-0.022524",
        "B": "0.70561",
        "C": "-2.4028",
        "D": "-0.0019215",
        "E": "-0.0000032256",
        "Tmin": "119.36",
        "Tmax": "415.55"
    },
    "RPPHeatCapacityCp": {
        "eqno": "4",
        "A": "13749",
        "B": "162.87",
        "C": "-0.095843",
        "D": "0.000021301",
        "Tmin": "200",
        "Tmax": "1500"
    },
    "AntoineVaporPressure": {
        "eqno": "10",
        "A": "20.716",
        "B": "2058.7",
        "C": "-35.364",
        "Tmin": "259.3",
        "Tmax": "388.71"
    },
    "LiquidViscosityRPS": {
        "eqno": "13",
        "A": "-2.9112",
        "B": "-0.029433",
        "C": "0.00003364",
        "Tmin": "130",
        "Tmax": "400"
    },
    "COSTALDVolume": "0.169758",
    "DiameterLJ": "4.783204E-10",
    "EnergyLJ": "299.7975",
    "RacketParameter": "0.281776",
    "FullerVolume": "59.73",
    "MatthiasCopemanC2": "-0.34884",
    "Parachor": "0.025",
    "SpecificGravity": "0.919257",
    "Charge": "0",
    "CostaldAcentricFactor": "0.100107",
    "WilsonVolume": "0.0646597",
    "UniquacR": "1.9124",
    "UniquacQ": "1.492",
    "MatthiasCopemanC3": "1.4731",
    "ChaoSeaderAcentricFactor": "0.100107",
    "ChaoSeaderSolubilityParameter": "17766.2",
    "ChaoSeaderLiquidVolume": "0.0646597",
    "UnifacVLE": {
        "group": "1"
    },
    "UnifacLLE": {
        "group": "1"
    },
    "Asog": {
        "group": "1"
    },
    "Umr": {
        "group": "1"
    },
    "ModifiedUnifac": {
        "group": "1"
    },
    "CAS": "75-01-4",
    "Smiles": "C=C[Cl]"
}