{
    "LibraryIndex": "1321",
    "CompoundID": "Vinyl acetate",
    "StructureFormula": "CH3COOCHCH2",
    "Family": "56",
    "CriticalTemperature": "501.45",
    "CriticalPressure": "4150000",
    "CriticalVolume": "0.266",
    "CriticalCompressibility": "0.248",
    "NormalBoilingPointTemperature": "345.65",
    "NormalMeltingPointTemperature": "180.35",
    "TriplePointTemperature": "180.35",
    "TriplePointPressure": "0.70586",
    "MolecularWeight": "86.08924",
    "LiquidVolumeAtNormalBoilingPoint": "0.0929486",
    "AcentricityFactor": "0.529352",
    "RadiusOfGyration": "2.969E-10",
    "SolubilityParameter": "18580",
    "DipoleMoment": "5.97E-30",
    "VanDerWaalsVolume": "0.04928",
    "VanDerWaalsArea": "7.26E+08",
    "HeatOfFormation": "-3.157E+08",
    "GibbsEnergyOfFormation": "-2.287E+08",
    "AbsEntropy": "334400",
    "HeatOfFusionAtMeltingPoint": "5370000",
    "MatthiasCopemanC1": "1.28",
    "HeatOfCombustion": "-1.95E+09",
    "SolidDensity": {
        "eqno": "2",
        "A": "15.585",
        "B": "-0.0095513",
        "C": "0",
        "D": "0",
        "E": "0",
        "Tmin": "72.14",
        "Tmax": "180.35"
    },
    "LiquidDensity": {
        "eqno": "105",
        "A": "0.80837",
        "B": "0.2388",
        "C": "524.34",
        "D": "0.25151",
        "Tmin": "180.35",
        "Tmax": "524.33"
    },
    "VaporPressure": {
        "eqno": "101",
        "A": "-28.90631",
        "B": "-2451.071",
        "C": "8.43748",
        "D": "-0.000014969",
        "E": "2",
        "Tmin": "180.35",
        "Tmax": "519.13"
    },
    "HeatOfVaporization": {
        "eqno": "106",
        "A": "5.178411E+07",
        "B": "1.329393",
        "C": "-3.127105",
        "D": "3.542901",
        "E": "-1.384803",
        "Tmin": "180.35",
        "Tmax": "501.3"
    },
    "SolidHeatCapacityCp": {
        "eqno": "1",
        "A": "115760",
        "Tmin": "0",
        "Tmax": "501.45"
    },
    "LiquidHeatCapacityCp": {
        "eqno": "16",
        "A": "104670",
        "B": "68.241",
        "C": "7.8309",
        "D": "0.01301",
        "E": "-0.00001011",
        "Tmin": "213.41",
        "Tmax": "389.35"
    },
    "IdealGasHeatCapacityCp": {
        "eqno": "16",
        "A": "50651",
        "B": "-432.89",
        "C": "12.118",
        "D": "0.00048734",
        "E": "-1.8964E-07",
        "Tmin": "100",
        "Tmax": "1500"
    },
    "SecondVirialCoefficient": {
        "eqno": "104",
        "A": "0.18283",
        "B": "-191.61",
        "C": "-27.209",
        "D": "-6457.2",
        "E": "8397.1",
        "Tmin": "259.56",
        "Tmax": "1890.57"
    },
    "LiquidViscosity": {
        "eqno": "101",
        "A": "-20.187",
        "B": "1398",
        "C": "1.3362",
        "D": "8.2076E-07",
        "E": "2",
        "Tmin": "225",
        "Tmax": "401"
    },
    "VaporViscosity": {
        "eqno": "102",
        "A": "1.4727E-07",
        "B": "0.76076",
        "C": "119.27",
        "D": "67.359",
        "Tmin": "180.35",
        "Tmax": "1000"
    },
    "LiquidThermalConductivity": {
        "eqno": "16",
        "A": "-0.068153",
        "B": "28.848",
        "C": "-1.5016",
        "D": "0.00051317",
        "E": "-0.0000030057",
        "Tmin": "180.35",
        "Tmax": "410"
    },
    "VaporThermalConductivity": {
        "eqno": "102",
        "A": "-5281900",
        "B": "-0.16154",
        "C": "2.8419E+09",
        "D": "-1.7045E+13",
        "Tmin": "180.35",
        "Tmax": "1000"
    },
    "SurfaceTension": {
        "eqno": "16",
        "A": "-0.0044907",
        "B": "310.64",
        "C": "-6.6728",
        "D": "0.014871",
        "E": "-0.000027076",
        "Tmin": "180.35",
        "Tmax": "501.3"
    },
    "RPPHeatCapacityCp": {
        "eqno": "4",
        "A": "21072",
        "B": "300.62",
        "C": "-0.12074",
        "D": "0.000010448",
        "Tmin": "100",
        "Tmax": "1500"
    },
    "AntoineVaporPressure": {
        "eqno": "10",
        "A": "21.328",
        "B": "2885.8",
        "C": "-51.534",
        "Tmin": "301.95",
        "Tmax": "447.81"
    },
    "LiquidViscosityRPS": {
        "eqno": "12",
        "A": "-4.1171",
        "B": "-0.012291",
        "Tmin": "225",
        "Tmax": "345.65"
    },
    "COSTALDVolume": "0.261926",
    "DiameterLJ": "6.395338E-10",
    "EnergyLJ": "216.355",
    "RacketParameter": "0.248",
    "FullerVolume": "89.68",
    "MatthiasCopemanC2": "0",
    "Parachor": "0.0355767",
    "SpecificGravity": "0.941",
    "Charge": "0",
    "CostaldAcentricFactor": "0.351307",
    "WilsonVolume": "0.0929486",
    "UniquacR": "3.2485",
    "UniquacQ": "2.904",
    "MatthiasCopemanC3": "0",
    "ChaoSeaderAcentricFactor": "0.351307",
    "ChaoSeaderSolubilityParameter": "18580",
    "ChaoSeaderLiquidVolume": "0.0929486",
    "UnifacVLE": {
        "group": "1"
    },
    "UnifacLLE": {
        "group": "1"
    },
    "Asog": {
        "group": "1"
    },
    "Umr": {
        "group": "1"
    },
    "ModifiedUnifac": {
        "group": "1"
    },
    "CAS": "108-05-4",
    "Smiles": "CC(=O)OC=C"
}