{
    "LibraryIndex": "1921",
    "CompoundID": "Water",
    "StructureFormula": "HOH",
    "Family": "84",
    "CriticalTemperature": "647.14",
    "CriticalPressure": "2.2064E+07",
    "CriticalVolume": "0.05595",
    "CriticalCompressibility": "0.229",
    "NormalBoilingPointTemperature": "373.15",
    "NormalMeltingPointTemperature": "273.15",
    "TriplePointTemperature": "273.16",
    "TriplePointPressure": "611.73",
    "MolecularWeight": "18.01528",
    "LiquidVolumeAtNormalBoilingPoint": "0.01807",
    "AcentricityFactor": "0.344",
    "RadiusOfGyration": "6.15E-11",
    "SolubilityParameter": "47860",
    "DipoleMoment": "6.17E-30",
    "VanDerWaalsVolume": "0.01237",
    "VanDerWaalsArea": "2.26E+08",
    "HeatOfFormation": "-2.41814E+08",
    "GibbsEnergyOfFormation": "-2.2859E+08",
    "AbsEntropy": "188724",
    "HeatOfFusionAtMeltingPoint": "6001740",
    "MatthiasCopemanC1": "1.0783",
    "SolidDensity": {
        "eqno": "2",
        "A": "52.967",
        "B": "-0.0075822",
        "Tmin": "233.15",
        "Tmax": "273.15"
    },
    "LiquidDensity": {
        "eqno": "106",
        "A": "32.51621",
        "B": "-3.213004",
        "C": "7.92411",
        "D": "-7.359898",
        "E": "2.703522",
        "Tmin": "253.1",
        "Tmax": "647.29"
    },
    "VaporPressure": {
        "eqno": "101",
        "A": "74.55502",
        "B": "-7295.586",
        "C": "-7.442448",
        "D": "0.0000042881",
        "E": "2",
        "Tmin": "263.15",
        "Tmax": "647.29"
    },
    "HeatOfVaporization": {
        "eqno": "106",
        "A": "5.964E+07",
        "B": "0.86515",
        "C": "-1.1134",
        "D": "0.67764",
        "E": "-0.026925",
        "Tmin": "273.15",
        "Tmax": "647.28"
    },
    "SolidHeatCapacityCp": {
        "eqno": "100",
        "A": "-262.51",
        "B": "140.52",
        "C": "-0.0000038869",
        "D": "-1.1996E-08",
        "E": "7.1879E-11",
        "Tmin": "3.15",
        "Tmax": "273.15"
    },
    "LiquidHeatCapacityCp": {
        "eqno": "16",
        "A": "75539",
        "B": "-22297",
        "C": "136.02",
        "D": "-0.25622",
        "E": "0.00018273",
        "Tmin": "273.1",
        "Tmax": "533.15"
    },
    "IdealGasHeatCapacityCp": {
        "eqno": "16",
        "A": "33200",
        "B": "-878.9001",
        "C": "8.436956",
        "D": "0.00207627",
        "E": "-6.467085E-07",
        "Tmin": "50",
        "Tmax": "1600"
    },
    "SecondVirialCoefficient": {
        "eqno": "104",
        "A": "0.01973",
        "B": "-22.635",
        "C": "-18.029",
        "D": "-2747",
        "E": "498.58",
        "Tmin": "273.15",
        "Tmax": "2000"
    },
    "LiquidViscosity": {
        "eqno": "101",
        "A": "-133.7",
        "B": "6785.7",
        "C": "18.47",
        "D": "-0.000014736",
        "E": "2",
        "Tmin": "273.1",
        "Tmax": "647.13"
    },
    "VaporViscosity": {
        "eqno": "102",
        "A": "7.002327E-08",
        "B": "0.934576",
        "C": "195.6338",
        "D": "-13045.99",
        "Tmin": "273.16",
        "Tmax": "1073.15"
    },
    "LiquidThermalConductivity": {
        "eqno": "16",
        "A": "-1.5697",
        "B": "-55.141",
        "C": "0.7832",
        "D": "0.0011484",
        "E": "-0.0000018151",
        "Tmin": "273.1",
        "Tmax": "633.15"
    },
    "VaporThermalConductivity": {
        "eqno": "102",
        "A": "0.0000065986",
        "B": "1.3947",
        "C": "59.478",
        "D": "-15484",
        "Tmin": "273.16",
        "Tmax": "1073.15"
    },
    "SurfaceTension": {
        "eqno": "16",
        "A": "-0.031819",
        "B": "167.09",
        "C": "-3.6781",
        "D": "0.0053717",
        "E": "-0.0000084188",
        "Tmin": "265.1",
        "Tmax": "647.1"
    },
    "RPPHeatCapacityCp": {
        "eqno": "100",
        "A": "33444.62",
        "B": "-5.799206",
        "C": "0.0251681",
        "D": "-0.0000143103",
        "E": "2.76249E-09",
        "Tmin": "50",
        "Tmax": "1000"
    },
    "RelativeStaticPermittivity": {
        "eqno": "121",
        "A": "1.78042",
        "B": "28066.24",
        "C": "-0.635922",
        "D": "-0.0472309",
        "E": "1",
        "Tmin": "238",
        "Tmax": "635"
    },
    "AntoineVaporPressure": {
        "eqno": "10",
        "A": "23.401",
        "B": "3987.3",
        "C": "-37.161",
        "Tmin": "273.1",
        "Tmax": "573.15"
    },
    "LiquidViscosityRPS": {
        "eqno": "13",
        "A": "-0.886",
        "B": "-0.026811",
        "C": "0.000020554",
        "Tmin": "273.1",
        "Tmax": "647.13"
    },
    "COSTALDVolume": "0.04357",
    "DiameterLJ": "2.52E-10",
    "EnergyLJ": "775",
    "RacketParameter": "0.2338",
    "FullerVolume": "13.11",
    "MatthiasCopemanC2": "-0.58321",
    "Parachor": "0.00926",
    "SpecificGravity": "0.997986",
    "Charge": "0",
    "CostaldAcentricFactor": "-0.65445",
    "WilsonVolume": "0.0180674",
    "UniquacR": "0.92",
    "UniquacQ": "1.4",
    "UniquacQP": "1",
    "ApiSrkS1": "1.243997",
    "ApiSrkS2": "0.201789",
    "MatthiasCopemanC3": "0.54619",
    "ChaoSeaderAcentricFactor": "0.328",
    "ChaoSeaderSolubilityParameter": "47812.7",
    "ChaoSeaderLiquidVolume": "0.0180674",
    "UnifacVLE": {
        "group": "1"
    },
    "UnifacLLE": {
        "group": "1"
    },
    "Asog": {
        "group": "1"
    },
    "GCmethod": {
        "group": "1"
    },
    "Umr": {
        "group": "1"
    },
    "ModifiedUnifac": {
        "group": "1"
    },
    "CAS": "7732-18-5",
    "Smiles": "O"
}