{
    "LibraryIndex": "959",
    "CompoundID": "Xenon",
    "StructureFormula": "Xe",
    "Family": "24",
    "CriticalTemperature": "289.74",
    "CriticalPressure": "5840000",
    "CriticalVolume": "0.118",
    "CriticalCompressibility": "0.286",
    "NormalBoilingPointTemperature": "165.01",
    "NormalMeltingPointTemperature": "161.25",
    "TriplePointTemperature": "161.25",
    "TriplePointPressure": "81667.9",
    "MolecularWeight": "131.293",
    "LiquidVolumeAtNormalBoilingPoint": "0.04291",
    "AcentricityFactor": "0.006",
    "RadiusOfGyration": "0",
    "SolubilityParameter": "15910",
    "DipoleMoment": "0",
    "HeatOfFormation": "0",
    "GibbsEnergyOfFormation": "0",
    "AbsEntropy": "169578",
    "HeatOfFusionAtMeltingPoint": "2294950",
    "MatthiasCopemanC1": "0.48315",
    "HeatOfCombustion": "0",
    "SolidDensity": {
        "eqno": "2",
        "A": "26.963",
        "B": "-2.7339E-08",
        "C": "0",
        "D": "0",
        "E": "0",
        "Tmin": "161.36",
        "Tmax": "170.86"
    },
    "LiquidDensity": {
        "eqno": "105",
        "A": "2.4063",
        "B": "0.28552",
        "C": "289.74",
        "D": "0.28967",
        "Tmin": "161.36",
        "Tmax": "289.74"
    },
    "VaporPressure": {
        "eqno": "101",
        "A": "31.497",
        "B": "-1758.9",
        "C": "-1.8727",
        "D": "0.0000091652",
        "E": "2",
        "Tmin": "155.55",
        "Tmax": "290"
    },
    "HeatOfVaporization": {
        "eqno": "106",
        "A": "1.740633E+07",
        "B": "-0.233725",
        "C": "3.148357",
        "D": "-4.995262",
        "E": "2.477111",
        "Tmin": "161.36",
        "Tmax": "289.74"
    },
    "LiquidHeatCapacityCp": {
        "eqno": "16",
        "A": "44610",
        "B": "-221",
        "C": "1.0811",
        "D": "0.026515",
        "E": "-0.000013257",
        "Tmin": "163.15",
        "Tmax": "172.65"
    },
    "IdealGasHeatCapacityCp": {
        "eqno": "16",
        "A": "20786",
        "B": "0",
        "C": "0",
        "D": "0",
        "E": "0",
        "Tmin": "10",
        "Tmax": "1500"
    },
    "SecondVirialCoefficient": {
        "eqno": "104",
        "A": "0.065789",
        "B": "-49.796",
        "C": "-0.7443",
        "D": "-0.092289",
        "E": "0.83555",
        "Tmin": "144.87",
        "Tmax": "1448.7"
    },
    "LiquidViscosity": {
        "eqno": "101",
        "A": "-7.7421",
        "B": "-0.53776",
        "C": "-0.00050184",
        "D": "-5.2934E-08",
        "E": "2",
        "Tmin": "165.02",
        "Tmax": "174.52"
    },
    "VaporViscosity": {
        "eqno": "102",
        "A": "0.0000014055",
        "B": "0.57778",
        "C": "188.46",
        "D": "-312.26",
        "Tmin": "100",
        "Tmax": "1773.15"
    },
    "LiquidThermalConductivity": {
        "eqno": "16",
        "A": "-0.012175",
        "B": "143.58",
        "C": "-4.2655",
        "D": "0.011041",
        "E": "-0.000032937",
        "Tmin": "145.9",
        "Tmax": "270"
    },
    "VaporThermalConductivity": {
        "eqno": "102",
        "A": "0.00026719",
        "B": "0.62046",
        "C": "215.6",
        "D": "-8144.4",
        "Tmin": "150",
        "Tmax": "1500"
    },
    "SurfaceTension": {
        "eqno": "16",
        "A": "-0.0032828",
        "B": "498.28",
        "C": "-11.457",
        "D": "0.046655",
        "E": "-0.00011349",
        "Tmin": "161.36",
        "Tmax": "289.74"
    },
    "RPPHeatCapacityCp": {
        "eqno": "100",
        "A": "20786",
        "B": "0",
        "C": "0",
        "D": "0",
        "E": "0",
        "Tmin": "50",
        "Tmax": "1000"
    },
    "AntoineVaporPressure": {
        "eqno": "10",
        "A": "21.626",
        "B": "1889.6",
        "C": "22.713",
        "Tmin": "174.87",
        "Tmax": "260"
    },
    "LiquidViscosityRPS": {
        "eqno": "12",
        "A": "-7.7494",
        "B": "-6.6574E-10",
        "Tmin": "165.02",
        "Tmax": "174.52"
    },
    "COSTALDVolume": "0.118",
    "DiameterLJ": "4.110548E-10",
    "EnergyLJ": "208.8524",
    "RacketParameter": "0.286",
    "FullerVolume": "32.7",
    "MatthiasCopemanC2": "0",
    "Parachor": "0.0164353",
    "SpecificGravity": "2.95262",
    "Charge": "0",
    "CostaldAcentricFactor": "0.006",
    "WilsonVolume": "0.04291",
    "UniquacR": "1.13",
    "UniquacQ": "1.13",
    "MatthiasCopemanC3": "0",
    "ChaoSeaderAcentricFactor": "0.006",
    "ChaoSeaderSolubilityParameter": "15910",
    "ChaoSeaderLiquidVolume": "0.04291",
    "Umr": {
        "group": "1"
    },
    "CAS": "7440-63-3",
    "Smiles": "[Xe]"
}